  python dir          : /home/vossj/suncat/lib/python2.7/site-packages/espresso
  espresso dir        : /home/vossj/suncat/esdld/espresso-dynpy-beef/bin
  pseudo dir          : /home/alatimer/bin/psp/esp_psp_w_gbrvRu/
  ase-espresso py git : ffa2778-git



     Program PWSCF v.5.1rc2 (svn rev. ) starts on 10Mar2018 at 10:32: 7 

     This program is part of the open-source Quantum ESPRESSO suite
     for quantum simulation of materials; please cite
         "P. Giannozzi et al., J. Phys.:Condens. Matter 21 395502 (2009);
          URL http://www.quantum-espresso.org", 
     in publications or presentations arising from this work. More details at
     http://www.quantum-espresso.org/quote

     Parallel version (MPI), running on    16 processors
     R & G space division:  proc/nbgrp/npool/nimage =      16
     Reading input from pw.inp
     Message from routine read_cards :
     DEPRECATED: no units specified in CELL_PARAMETERS card

     Current dimensions of program PWSCF are:
     Max number of different atomic species (ntypx) = 10
     Max number of k-points (npk) =  40000
     Max angular momentum in pseudopotentials (lmaxx) =  3

     **************************************************************************
     Initializing libbeef V0.1.1 with the BEEF-vdW functional.
     Citation: Wellendorff et al., PRB 85, 235149 (2012).
     **************************************************************************


     IMPORTANT: XC functional enforced from input :
     Exchange-correlation      = BEEF ( 1  4 27 13 2)
     Any further DFT definition will be discarded
     Please, verify this is what you really want


     Subspace diagonalization in iterative solution of the eigenvalue problem:
     a serial algorithm will be used

 
     Parallelization info
     --------------------
     sticks:   dense  smooth     PW     G-vecs:    dense   smooth      PW
     Min         281     112     31                68535    17318    2565
     Max         282     113     32                68545    17369    2582
     Sum        4501    1795    503              1096637   277353   41113
 
     Generating pointlists ...
     new r_m :   0.4125 (alat units)  0.7795 (a.u.) for type    1
     new r_m :   0.4125 (alat units)  0.7795 (a.u.) for type    2
     new r_m :   0.4125 (alat units)  0.7795 (a.u.) for type    3


     bravais-lattice index     =            0
     lattice parameter (alat)  =       1.8897  a.u.
     unit-cell volume          =    7990.9933 (a.u.)^3
     number of atoms/cell      =           51
     number of atomic types    =            3
     number of electrons       =       400.00
     number of Kohn-Sham states=          300
     kinetic-energy cutoff     =      40.4243  Ry
     charge density cutoff     =     404.2426  Ry
     convergence threshold     =      7.3E-07
     mixing beta               =       0.1000
     number of iterations used =           10  plain     mixing
     Exchange-correlation      = BEEF ( 1  4 27 13 2)
     nstep                     =           50


     celldm(1)=   1.889726  celldm(2)=   0.000000  celldm(3)=   0.000000
     celldm(4)=   0.000000  celldm(5)=   0.000000  celldm(6)=   0.000000

     crystal axes: (cart. coord. in units of alat)
               a(1) = (   6.590708   0.000000   0.000000 )  
               a(2) = (   0.000000   5.950229   0.000000 )  
               a(3) = (   0.000000   0.000000  30.195235 )  

     reciprocal axes: (cart. coord. in units 2 pi/alat)
               b(1) = (  0.151729  0.000000  0.000000 )  
               b(2) = (  0.000000  0.168061  0.000000 )  
               b(3) = (  0.000000  0.000000  0.033118 )  


     PseudoPot. # 1 for Ti read from file:
     /home/alatimer/bin/psp/esp_psp_w_gbrvRu/Ti.UPF
     MD5 check sum: 8e4df49b7f0d34bbd5052bf3f5ea0213
     Pseudo is Ultrasoft, Zval = 12.0
     Generated by new atomic code, or converted to UPF format
     Using radial grid of  851 points,  6 beta functions with: 
                l(1) =   0
                l(2) =   0
                l(3) =   1
                l(4) =   1
                l(5) =   2
                l(6) =   2
     Q(r) pseudized with  8 coefficients,  rinner =    1.000   1.000   1.000
                                                       1.000   1.000

     PseudoPot. # 2 for  O read from file:
     /home/alatimer/bin/psp/esp_psp_w_gbrvRu/O.UPF
     MD5 check sum: e057bbcf3229fb5d8c36c0c92f9568b4
     Pseudo is Ultrasoft + core correction, Zval =  6.0
     Generated using "atomic" code by A. Dal Corso  v.5.0.2 svn rev. 9415
     Using radial grid of 1095 points,  4 beta functions with: 
                l(1) =   0
                l(2) =   0
                l(3) =   1
                l(4) =   1
     Q(r) pseudized with 0 coefficients 


     PseudoPot. # 3 for  N read from file:
     /home/alatimer/bin/psp/esp_psp_w_gbrvRu/N.UPF
     MD5 check sum: ed8b6a90f28a53b7d71920e7015d2dd6
     Pseudo is Ultrasoft + core correction, Zval =  5.0
     Generated using "atomic" code by A. Dal Corso  v.5.0.2 svn rev. 9415
     Using radial grid of 1085 points,  4 beta functions with: 
                l(1) =   0
                l(2) =   0
                l(3) =   1
                l(4) =   1
     Q(r) pseudized with 0 coefficients 


     vdW kernel table read from file vdW_kernel_table
     MD5 check sum: 095c7af220d748ca6e76c0b4c6cfb241

     atomic species   valence    mass     pseudopotential
        Ti1           12.00    47.88000     Ti( 1.00)
        O1             6.00    15.99940      O( 1.00)
        N1             5.00    14.00670      N( 1.00)

     Starting magnetic structure 
     atomic species   magnetization
        Ti1          0.250
        O1           0.500
        N1           0.600

     No symmetry found



   Cartesian axes

     site n.     atom                  positions (alat units)
         1           Ti1 tau(   1) = (   1.6476770   0.7437786   2.6545865  )
         2           O1  tau(   2) = (   1.6476770   2.2313359   3.9361215  )
         3           Ti1 tau(   3) = (   1.6476770   2.2313359   5.9499405  )
         4           O1  tau(   4) = (   0.3661420   0.7437786   5.9499405  )
         5           Ti1 tau(   5) = (   1.5280591   0.7315068   9.1973351  )
         6           O1  tau(   6) = (   1.6613943   2.1836906  10.6091769  )
         7           Ti1 tau(   7) = (   1.6665780   2.2096385  12.4157880  )
         8           O1  tau(   8) = (   0.4439715   0.7264440  12.7601561  )
         9           Ti1 tau(   9) = (   1.6476770   3.7188931   2.6545865  )
        10           O1  tau(  10) = (   1.6476770   5.2064503   3.9361215  )
        11           Ti1 tau(  11) = (   1.6476770   5.2064503   5.9499405  )
        12           O1  tau(  12) = (   0.3661420   3.7188931   5.9499405  )
        13           Ti1 tau(  13) = (   1.5319291   3.7072436   9.2118370  )
        14           O1  tau(  14) = (   1.6575607   5.2126413  10.6087893  )
        15           Ti1 tau(  15) = (   1.6606453   5.1916961  12.4165775  )
        16           O1  tau(  16) = (   0.4123725   3.7022030  12.5882193  )
        17           O1  tau(  17) = (   1.6476770   2.2313359   1.3730516  )
        18           Ti1 tau(  18) = (   4.9430310   2.2313359   2.6545865  )
        19           O1  tau(  19) = (   4.9430310   2.2313359   4.6684056  )
        20           O1  tau(  20) = (   6.2245660   0.7437786   2.6545865  )
        21           O1  tau(  21) = (   3.6614961   0.7437786   2.6545865  )
        22           Ti1 tau(  22) = (   4.9430310   0.7437786   5.9499405  )
        23           O1  tau(  23) = (   1.6517842   2.2287041   8.0298356  )
        24           O1  tau(  24) = (   4.9430310   2.2313359   7.2314755  )
        25           O1  tau(  25) = (   2.9292120   0.7437786   5.9499405  )
        26           Ti1 tau(  26) = (   4.8605205   2.2076595   9.4238065  )
        27           O1  tau(  27) = (   4.9553550   2.1639423  11.2756624  )
        28           O1  tau(  28) = (   6.2690671   0.7288246   9.2688367  )
        29           O1  tau(  29) = (   3.6660957   0.7249325   9.2867299  )
        30           Ti1 tau(  30) = (   4.9284588   0.7282168  12.7798302  )
        31           O1  tau(  31) = (   4.9953437   2.2216212  13.8477397  )
        32           O1  tau(  32) = (   2.9112183   0.7266397  12.7651274  )
        33           O1  tau(  33) = (   1.6476770   5.2064503   1.3730516  )
        34           Ti1 tau(  34) = (   4.9430310   5.2064503   2.6545865  )
        35           O1  tau(  35) = (   4.9430310   5.2064503   4.6684056  )
        36           O1  tau(  36) = (   6.2245660   3.7188931   2.6545865  )
        37           O1  tau(  37) = (   3.6614961   3.7188931   2.6545865  )
        38           Ti1 tau(  38) = (   4.9430310   3.7188931   5.9499405  )
        39           O1  tau(  39) = (   1.6524867   5.1852222   8.0294571  )
        40           O1  tau(  40) = (   4.9430310   5.2064503   7.2314755  )
        41           O1  tau(  41) = (   2.9292120   3.7188931   5.9499405  )
        42           Ti1 tau(  42) = (   4.8610151   5.1886528   9.4241876  )
        43           O1  tau(  43) = (   4.9550983   5.2107439  11.2753448  )
        44           O1  tau(  44) = (   6.2713562   3.7024388   9.3047907  )
        45           O1  tau(  45) = (   3.6650622   3.7005085   9.3135888  )
        46           Ti1 tau(  46) = (   5.0160509   3.7038162  12.7585864  )
        47           O1  tau(  47) = (   4.9984032   5.1727849  13.8485277  )
        48           O1  tau(  48) = (   2.9655234   3.7049164  12.5317472  )
        49           O1  tau(  49) = (   2.2548149   3.7063572  14.5693114  )
        50           N1  tau(  50) = (   2.3720298   3.6667063  16.9651815  )
        51           N1  tau(  51) = (   2.1425646   3.6919273  15.8611024  )

     number of k points=    40  Fermi-Dirac smearing, width (Ry)=  0.0073
                       cart. coord. in units 2pi/alat
        k(    1) = (   0.0000000   0.0000000   0.0000000), wk =   0.0277778
        k(    2) = (   0.0000000   0.0280101   0.0000000), wk =   0.0555556
        k(    3) = (   0.0000000   0.0560203   0.0000000), wk =   0.0555556
        k(    4) = (   0.0000000  -0.0840304   0.0000000), wk =   0.0277778
        k(    5) = (   0.0252881   0.0000000   0.0000000), wk =   0.0555556
        k(    6) = (   0.0252881   0.0280101   0.0000000), wk =   0.0555556
        k(    7) = (   0.0252881   0.0560203   0.0000000), wk =   0.0555556
        k(    8) = (   0.0252881  -0.0840304   0.0000000), wk =   0.0555556
        k(    9) = (   0.0505763   0.0000000   0.0000000), wk =   0.0555556
        k(   10) = (   0.0505763   0.0280101   0.0000000), wk =   0.0555556
        k(   11) = (   0.0505763   0.0560203   0.0000000), wk =   0.0555556
        k(   12) = (   0.0505763  -0.0840304   0.0000000), wk =   0.0555556
        k(   13) = (  -0.0758644   0.0000000   0.0000000), wk =   0.0277778
        k(   14) = (  -0.0758644   0.0280101   0.0000000), wk =   0.0555556
        k(   15) = (  -0.0758644   0.0560203   0.0000000), wk =   0.0555556
        k(   16) = (  -0.0758644  -0.0840304   0.0000000), wk =   0.0277778
        k(   17) = (  -0.0252881   0.0280101   0.0000000), wk =   0.0555556
        k(   18) = (  -0.0252881   0.0560203   0.0000000), wk =   0.0555556
        k(   19) = (  -0.0505763   0.0280101   0.0000000), wk =   0.0555556
        k(   20) = (  -0.0505763   0.0560203   0.0000000), wk =   0.0555556
        k(   21) = (   0.0000000   0.0000000   0.0000000), wk =   0.0277778
        k(   22) = (   0.0000000   0.0280101   0.0000000), wk =   0.0555556
        k(   23) = (   0.0000000   0.0560203   0.0000000), wk =   0.0555556
        k(   24) = (   0.0000000  -0.0840304   0.0000000), wk =   0.0277778
        k(   25) = (   0.0252881   0.0000000   0.0000000), wk =   0.0555556
        k(   26) = (   0.0252881   0.0280101   0.0000000), wk =   0.0555556
        k(   27) = (   0.0252881   0.0560203   0.0000000), wk =   0.0555556
        k(   28) = (   0.0252881  -0.0840304   0.0000000), wk =   0.0555556
        k(   29) = (   0.0505763   0.0000000   0.0000000), wk =   0.0555556
        k(   30) = (   0.0505763   0.0280101   0.0000000), wk =   0.0555556
        k(   31) = (   0.0505763   0.0560203   0.0000000), wk =   0.0555556
        k(   32) = (   0.0505763  -0.0840304   0.0000000), wk =   0.0555556
        k(   33) = (  -0.0758644   0.0000000   0.0000000), wk =   0.0277778
        k(   34) = (  -0.0758644   0.0280101   0.0000000), wk =   0.0555556
        k(   35) = (  -0.0758644   0.0560203   0.0000000), wk =   0.0555556
        k(   36) = (  -0.0758644  -0.0840304   0.0000000), wk =   0.0277778
        k(   37) = (  -0.0252881   0.0280101   0.0000000), wk =   0.0555556
        k(   38) = (  -0.0252881   0.0560203   0.0000000), wk =   0.0555556
        k(   39) = (  -0.0505763   0.0280101   0.0000000), wk =   0.0555556
        k(   40) = (  -0.0505763   0.0560203   0.0000000), wk =   0.0555556

     Dense  grid:  1096637 G-vectors     FFT dimensions: (  80,  72, 375)

     Smooth grid:   277353 G-vectors     FFT dimensions: (  54,  45, 240)

     Largest allocated arrays     est. size (Mb)     dimensions
        Kohn-Sham Wavefunctions         9.98 Mb     (    2180,  300)
        NL pseudopotentials            18.89 Mb     (    2180,  568)
        Each V/rho on FFT grid          4.22 Mb     (  138240,   2)
        Each G-vector array             0.52 Mb     (   68538)
        G-vector shells                 0.25 Mb     (   33046)
     Largest temporary arrays     est. size (Mb)     dimensions
        Auxiliary wavefunctions        39.92 Mb     (    2180, 1200)
        Each subspace H/S matrix       21.97 Mb     (    1200, 1200)
        Each <psi_i|beta_j> matrix      2.60 Mb     (     568,  300)
        Arrays for rho mixing          21.09 Mb     (  138240,   10)

     Check: negative/imaginary core charge=   -0.000049    0.000000

     The initial density is read from file :
     ./calc.save/charge-density.dat


     negative rho (up, down):  1.158E-02 1.158E-02


     ************************************************************************
     *
     * You are using vdW-DF for exchange-correlation in this calculation.
     * Please cite the following three references that made this development
     * possible:
     *
     *   M. Dion, H. Rydberg, E. Schroder, D. C. Langreth, and
     *   B. I. Lundqvist, Phys. Rev. Lett. 92, 246401 (2004).
     *
     *   T. Thonhauser, V. R. Cooper, S. Li, A. Puzder, P. Hyldgaard, and
     *   D. C. Langreth, Phys. Rev. B 76, 125112 (2007).
     *
     *   G. Roman-Perez and J. M. Soler, Phys. Rev. Lett. 103, 096102 (2009).
     *
     *
     * If you are using vdW-DF2, please also cite:
     *
     *   K. Lee, E. D. Murray, L. Kong, B. I. Lundqvist, and
     *   D. C. Langreth, Phys. Rev. B 82, 081101(R) (2010).
     *
     *
     * If you are calculating the stress with vdW-DF, please also cite:
     *
     *   R. Sabatini, E. Kucukbenli, B. Kolb, T. Thonhauser, and
     *   S. de Gironcoli, J. Phys.: Condens. Matter 24, 424209 (2012).
     *
     ************************************************************************

     Carrying out vdW-DF run using the following parameters:

     Nqs =      20    Nr_points =    1024   r_max =   100.000
     q_mesh =
               0.00001000     0.04494208     0.09755937     0.15916263
               0.23128650     0.31572767     0.41458969     0.53033537
               0.66584808     0.82450364     1.01025438     1.22772762
               1.48234092     1.78043706     2.12944203     2.53805004
               3.01644009     3.57652955     4.23227104     5.00000000

     Gradients computed in reciprocal space

     ************************************************************************


     Starting wfc are  300 randomized atomic wfcs

     total cpu time spent up to now is       70.2 secs

     Self-consistent Calculation

     iteration #  1     ecut=    40.42 Ry     beta=0.10
     Davidson diagonalization with overlap
     ethr =  1.00E-05,  avg # of iterations = 14.8

     negative rho (up, down):  1.158E-02 1.158E-02
 
     Magnetic moment per site:
     atom:    1    charge:    3.1250    magn:   -0.0002    constr:    0.0000
     atom:    2    charge:    2.0894    magn:    0.0001    constr:    0.0000
     atom:    3    charge:    3.1196    magn:   -0.0001    constr:    0.0000
     atom:    4    charge:    2.0870    magn:    0.0000    constr:    0.0000
     atom:    5    charge:    3.1170    magn:   -0.0001    constr:    0.0000
     atom:    6    charge:    2.0917    magn:    0.0001    constr:    0.0000
     atom:    7    charge:    3.1185    magn:   -0.0000    constr:    0.0000
     atom:    8    charge:    2.0816    magn:    0.0001    constr:    0.0000
     atom:    9    charge:    3.1250    magn:   -0.0002    constr:    0.0000
     atom:   10    charge:    2.0894    magn:    0.0001    constr:    0.0000
     atom:   11    charge:    3.1196    magn:   -0.0001    constr:    0.0000
     atom:   12    charge:    2.0870    magn:    0.0000    constr:    0.0000
     atom:   13    charge:    3.1148    magn:   -0.0001    constr:    0.0000
     atom:   14    charge:    2.0911    magn:    0.0001    constr:    0.0000
     atom:   15    charge:    3.1194    magn:   -0.0000    constr:    0.0000
     atom:   16    charge:    2.0884    magn:    0.0001    constr:    0.0000
     atom:   17    charge:    2.0624    magn:    0.0004    constr:    0.0000
     atom:   18    charge:    3.1239    magn:   -0.0000    constr:    0.0000
     atom:   19    charge:    2.0878    magn:   -0.0000    constr:    0.0000
     atom:   20    charge:    2.0847    magn:   -0.0001    constr:    0.0000
     atom:   21    charge:    2.0847    magn:   -0.0001    constr:    0.0000
     atom:   22    charge:    3.1197    magn:   -0.0000    constr:    0.0000
     atom:   23    charge:    2.0908    magn:    0.0001    constr:    0.0000
     atom:   24    charge:    2.0777    magn:    0.0001    constr:    0.0000
     atom:   25    charge:    2.0869    magn:    0.0000    constr:    0.0000
     atom:   26    charge:    3.1165    magn:   -0.0001    constr:    0.0000
     atom:   27    charge:    2.0824    magn:    0.0002    constr:    0.0000
     atom:   28    charge:    2.0879    magn:    0.0001    constr:    0.0000
     atom:   29    charge:    2.0877    magn:    0.0001    constr:    0.0000
     atom:   30    charge:    3.1168    magn:   -0.0001    constr:    0.0000
     atom:   31    charge:    2.0814    magn:    0.0003    constr:    0.0000
     atom:   32    charge:    2.0842    magn:    0.0001    constr:    0.0000
     atom:   33    charge:    2.0624    magn:    0.0004    constr:    0.0000
     atom:   34    charge:    3.1239    magn:   -0.0000    constr:    0.0000
     atom:   35    charge:    2.0878    magn:   -0.0000    constr:    0.0000
     atom:   36    charge:    2.0847    magn:   -0.0001    constr:    0.0000
     atom:   37    charge:    2.0847    magn:   -0.0001    constr:    0.0000
     atom:   38    charge:    3.1197    magn:   -0.0000    constr:    0.0000
     atom:   39    charge:    2.0912    magn:    0.0001    constr:    0.0000
     atom:   40    charge:    2.0777    magn:    0.0001    constr:    0.0000
     atom:   41    charge:    2.0869    magn:    0.0000    constr:    0.0000
     atom:   42    charge:    3.1181    magn:   -0.0001    constr:    0.0000
     atom:   43    charge:    2.0838    magn:    0.0002    constr:    0.0000
     atom:   44    charge:    2.0865    magn:    0.0001    constr:    0.0000
     atom:   45    charge:    2.0871    magn:    0.0001    constr:    0.0000
     atom:   46    charge:    3.1171    magn:   -0.0001    constr:    0.0000
     atom:   47    charge:    2.0796    magn:    0.0003    constr:    0.0000
     atom:   48    charge:    2.0834    magn:    0.0002    constr:    0.0000
     atom:   49    charge:    2.0518    magn:   -0.0000    constr:    0.0000
     atom:   50    charge:    1.2564    magn:   -0.0000    constr:    0.0000
     atom:   51    charge:    1.2881    magn:    0.0000    constr:    0.0000

     total cpu time spent up to now is      860.8 secs

     total energy              =   -3044.97080797 Ry
     Harris-Foulkes estimate   =   -3044.97776576 Ry
     estimated scf accuracy    <       0.04882607 Ry

     total magnetization       =     0.00 Bohr mag/cell
     absolute magnetization    =     0.01 Bohr mag/cell

     iteration #  2     ecut=    40.42 Ry     beta=0.10
     Davidson diagonalization with overlap
     ethr =  1.22E-05,  avg # of iterations =  2.0

     negative rho (up, down):  1.159E-02 1.159E-02
 
     Magnetic moment per site:
     atom:    1    charge:    3.1250    magn:   -0.0001    constr:    0.0000
     atom:    2    charge:    2.0894    magn:    0.0001    constr:    0.0000
     atom:    3    charge:    3.1196    magn:   -0.0000    constr:    0.0000
     atom:    4    charge:    2.0870    magn:    0.0000    constr:    0.0000
     atom:    5    charge:    3.1170    magn:   -0.0000    constr:    0.0000
     atom:    6    charge:    2.0917    magn:    0.0000    constr:    0.0000
     atom:    7    charge:    3.1185    magn:   -0.0000    constr:    0.0000
     atom:    8    charge:    2.0816    magn:    0.0001    constr:    0.0000
     atom:    9    charge:    3.1250    magn:   -0.0001    constr:    0.0000
     atom:   10    charge:    2.0894    magn:    0.0001    constr:    0.0000
     atom:   11    charge:    3.1196    magn:   -0.0000    constr:    0.0000
     atom:   12    charge:    2.0870    magn:    0.0000    constr:    0.0000
     atom:   13    charge:    3.1148    magn:   -0.0000    constr:    0.0000
     atom:   14    charge:    2.0911    magn:    0.0000    constr:    0.0000
     atom:   15    charge:    3.1194    magn:   -0.0000    constr:    0.0000
     atom:   16    charge:    2.0884    magn:    0.0000    constr:    0.0000
     atom:   17    charge:    2.0624    magn:    0.0003    constr:    0.0000
     atom:   18    charge:    3.1239    magn:   -0.0000    constr:    0.0000
     atom:   19    charge:    2.0878    magn:   -0.0000    constr:    0.0000
     atom:   20    charge:    2.0847    magn:   -0.0000    constr:    0.0000
     atom:   21    charge:    2.0847    magn:   -0.0000    constr:    0.0000
     atom:   22    charge:    3.1197    magn:   -0.0000    constr:    0.0000
     atom:   23    charge:    2.0909    magn:    0.0001    constr:    0.0000
     atom:   24    charge:    2.0777    magn:    0.0000    constr:    0.0000
     atom:   25    charge:    2.0869    magn:    0.0000    constr:    0.0000
     atom:   26    charge:    3.1165    magn:   -0.0001    constr:    0.0000
     atom:   27    charge:    2.0824    magn:    0.0001    constr:    0.0000
     atom:   28    charge:    2.0879    magn:    0.0001    constr:    0.0000
     atom:   29    charge:    2.0878    magn:    0.0001    constr:    0.0000
     atom:   30    charge:    3.1168    magn:   -0.0001    constr:    0.0000
     atom:   31    charge:    2.0813    magn:    0.0002    constr:    0.0000
     atom:   32    charge:    2.0842    magn:    0.0001    constr:    0.0000
     atom:   33    charge:    2.0624    magn:    0.0003    constr:    0.0000
     atom:   34    charge:    3.1239    magn:   -0.0000    constr:    0.0000
     atom:   35    charge:    2.0878    magn:   -0.0000    constr:    0.0000
     atom:   36    charge:    2.0847    magn:   -0.0001    constr:    0.0000
     atom:   37    charge:    2.0847    magn:   -0.0000    constr:    0.0000
     atom:   38    charge:    3.1197    magn:   -0.0000    constr:    0.0000
     atom:   39    charge:    2.0912    magn:    0.0001    constr:    0.0000
     atom:   40    charge:    2.0777    magn:    0.0001    constr:    0.0000
     atom:   41    charge:    2.0869    magn:    0.0000    constr:    0.0000
     atom:   42    charge:    3.1181    magn:   -0.0001    constr:    0.0000
     atom:   43    charge:    2.0838    magn:    0.0001    constr:    0.0000
     atom:   44    charge:    2.0865    magn:    0.0001    constr:    0.0000
     atom:   45    charge:    2.0871    magn:    0.0001    constr:    0.0000
     atom:   46    charge:    3.1171    magn:   -0.0001    constr:    0.0000
     atom:   47    charge:    2.0794    magn:    0.0002    constr:    0.0000
     atom:   48    charge:    2.0834    magn:    0.0001    constr:    0.0000
     atom:   49    charge:    2.0511    magn:   -0.0000    constr:    0.0000
     atom:   50    charge:    1.2584    magn:   -0.0000    constr:    0.0000
     atom:   51    charge:    1.2933    magn:    0.0000    constr:    0.0000

     total cpu time spent up to now is     1063.8 secs

     total energy              =   -3044.95502379 Ry
     Harris-Foulkes estimate   =   -3044.97120818 Ry
     estimated scf accuracy    <       0.03172224 Ry

     total magnetization       =     0.00 Bohr mag/cell
     absolute magnetization    =     0.01 Bohr mag/cell

     iteration #  3     ecut=    40.42 Ry     beta=0.10
     Davidson diagonalization with overlap
     ethr =  7.93E-06,  avg # of iterations =  3.2

     negative rho (up, down):  1.159E-02 1.159E-02
 
     Magnetic moment per site:
     atom:    1    charge:    3.1250    magn:   -0.0001    constr:    0.0000
     atom:    2    charge:    2.0894    magn:    0.0001    constr:    0.0000
     atom:    3    charge:    3.1196    magn:   -0.0000    constr:    0.0000
     atom:    4    charge:    2.0870    magn:    0.0000    constr:    0.0000
     atom:    5    charge:    3.1170    magn:   -0.0000    constr:    0.0000
     atom:    6    charge:    2.0917    magn:    0.0000    constr:    0.0000
     atom:    7    charge:    3.1184    magn:   -0.0000    constr:    0.0000
     atom:    8    charge:    2.0815    magn:    0.0000    constr:    0.0000
     atom:    9    charge:    3.1250    magn:   -0.0001    constr:    0.0000
     atom:   10    charge:    2.0894    magn:    0.0001    constr:    0.0000
     atom:   11    charge:    3.1196    magn:   -0.0000    constr:    0.0000
     atom:   12    charge:    2.0870    magn:    0.0000    constr:    0.0000
     atom:   13    charge:    3.1148    magn:   -0.0000    constr:    0.0000
     atom:   14    charge:    2.0912    magn:    0.0000    constr:    0.0000
     atom:   15    charge:    3.1194    magn:   -0.0000    constr:    0.0000
     atom:   16    charge:    2.0882    magn:    0.0000    constr:    0.0000
     atom:   17    charge:    2.0624    magn:    0.0003    constr:    0.0000
     atom:   18    charge:    3.1239    magn:   -0.0000    constr:    0.0000
     atom:   19    charge:    2.0878    magn:   -0.0000    constr:    0.0000
     atom:   20    charge:    2.0847    magn:   -0.0000    constr:    0.0000
     atom:   21    charge:    2.0847    magn:   -0.0000    constr:    0.0000
     atom:   22    charge:    3.1197    magn:   -0.0000    constr:    0.0000
     atom:   23    charge:    2.0909    magn:    0.0000    constr:    0.0000
     atom:   24    charge:    2.0777    magn:    0.0000    constr:    0.0000
     atom:   25    charge:    2.0869    magn:    0.0000    constr:    0.0000
     atom:   26    charge:    3.1165    magn:   -0.0000    constr:    0.0000
     atom:   27    charge:    2.0824    magn:    0.0001    constr:    0.0000
     atom:   28    charge:    2.0879    magn:    0.0001    constr:    0.0000
     atom:   29    charge:    2.0878    magn:    0.0001    constr:    0.0000
     atom:   30    charge:    3.1167    magn:   -0.0001    constr:    0.0000
     atom:   31    charge:    2.0816    magn:    0.0002    constr:    0.0000
     atom:   32    charge:    2.0843    magn:    0.0000    constr:    0.0000
     atom:   33    charge:    2.0624    magn:    0.0003    constr:    0.0000
     atom:   34    charge:    3.1239    magn:   -0.0000    constr:    0.0000
     atom:   35    charge:    2.0878    magn:   -0.0000    constr:    0.0000
     atom:   36    charge:    2.0847    magn:   -0.0000    constr:    0.0000
     atom:   37    charge:    2.0847    magn:   -0.0000    constr:    0.0000
     atom:   38    charge:    3.1197    magn:   -0.0000    constr:    0.0000
     atom:   39    charge:    2.0912    magn:    0.0000    constr:    0.0000
     atom:   40    charge:    2.0777    magn:    0.0000    constr:    0.0000
     atom:   41    charge:    2.0869    magn:    0.0000    constr:    0.0000
     atom:   42    charge:    3.1181    magn:   -0.0000    constr:    0.0000
     atom:   43    charge:    2.0838    magn:    0.0001    constr:    0.0000
     atom:   44    charge:    2.0865    magn:    0.0001    constr:    0.0000
     atom:   45    charge:    2.0871    magn:    0.0001    constr:    0.0000
     atom:   46    charge:    3.1171    magn:   -0.0001    constr:    0.0000
     atom:   47    charge:    2.0797    magn:    0.0002    constr:    0.0000
     atom:   48    charge:    2.0839    magn:    0.0001    constr:    0.0000
     atom:   49    charge:    2.0516    magn:   -0.0000    constr:    0.0000
     atom:   50    charge:    1.2613    magn:   -0.0000    constr:    0.0000
     atom:   51    charge:    1.2910    magn:    0.0000    constr:    0.0000

     total cpu time spent up to now is     1290.1 secs

     total energy              =   -3044.95815765 Ry
     Harris-Foulkes estimate   =   -3044.95913268 Ry
     estimated scf accuracy    <       0.00253680 Ry

     total magnetization       =     0.00 Bohr mag/cell
     absolute magnetization    =     0.00 Bohr mag/cell

     iteration #  4     ecut=    40.42 Ry     beta=0.10
     Davidson diagonalization with overlap
     ethr =  6.34E-07,  avg # of iterations =  4.3

     negative rho (up, down):  1.159E-02 1.159E-02
 
     Magnetic moment per site:
     atom:    1    charge:    3.1250    magn:   -0.0001    constr:    0.0000
     atom:    2    charge:    2.0894    magn:    0.0001    constr:    0.0000
     atom:    3    charge:    3.1196    magn:   -0.0000    constr:    0.0000
     atom:    4    charge:    2.0870    magn:    0.0000    constr:    0.0000
     atom:    5    charge:    3.1170    magn:   -0.0000    constr:    0.0000
     atom:    6    charge:    2.0917    magn:    0.0000    constr:    0.0000
     atom:    7    charge:    3.1185    magn:   -0.0000    constr:    0.0000
     atom:    8    charge:    2.0815    magn:    0.0000    constr:    0.0000
     atom:    9    charge:    3.1250    magn:   -0.0001    constr:    0.0000
     atom:   10    charge:    2.0894    magn:    0.0001    constr:    0.0000
     atom:   11    charge:    3.1196    magn:   -0.0000    constr:    0.0000
     atom:   12    charge:    2.0870    magn:    0.0000    constr:    0.0000
     atom:   13    charge:    3.1148    magn:   -0.0000    constr:    0.0000
     atom:   14    charge:    2.0912    magn:    0.0000    constr:    0.0000
     atom:   15    charge:    3.1194    magn:   -0.0000    constr:    0.0000
     atom:   16    charge:    2.0882    magn:    0.0000    constr:    0.0000
     atom:   17    charge:    2.0624    magn:    0.0002    constr:    0.0000
     atom:   18    charge:    3.1239    magn:   -0.0000    constr:    0.0000
     atom:   19    charge:    2.0878    magn:   -0.0000    constr:    0.0000
     atom:   20    charge:    2.0847    magn:   -0.0000    constr:    0.0000
     atom:   21    charge:    2.0847    magn:   -0.0000    constr:    0.0000
     atom:   22    charge:    3.1197    magn:   -0.0000    constr:    0.0000
     atom:   23    charge:    2.0909    magn:    0.0000    constr:    0.0000
     atom:   24    charge:    2.0777    magn:    0.0000    constr:    0.0000
     atom:   25    charge:    2.0869    magn:    0.0000    constr:    0.0000
     atom:   26    charge:    3.1165    magn:   -0.0000    constr:    0.0000
     atom:   27    charge:    2.0824    magn:    0.0001    constr:    0.0000
     atom:   28    charge:    2.0879    magn:    0.0001    constr:    0.0000
     atom:   29    charge:    2.0877    magn:    0.0000    constr:    0.0000
     atom:   30    charge:    3.1168    magn:   -0.0001    constr:    0.0000
     atom:   31    charge:    2.0817    magn:    0.0002    constr:    0.0000
     atom:   32    charge:    2.0843    magn:    0.0000    constr:    0.0000
     atom:   33    charge:    2.0624    magn:    0.0002    constr:    0.0000
     atom:   34    charge:    3.1239    magn:   -0.0000    constr:    0.0000
     atom:   35    charge:    2.0878    magn:   -0.0000    constr:    0.0000
     atom:   36    charge:    2.0847    magn:   -0.0000    constr:    0.0000
     atom:   37    charge:    2.0847    magn:   -0.0000    constr:    0.0000
     atom:   38    charge:    3.1197    magn:   -0.0000    constr:    0.0000
     atom:   39    charge:    2.0912    magn:    0.0000    constr:    0.0000
     atom:   40    charge:    2.0777    magn:    0.0000    constr:    0.0000
     atom:   41    charge:    2.0869    magn:    0.0000    constr:    0.0000
     atom:   42    charge:    3.1181    magn:   -0.0000    constr:    0.0000
     atom:   43    charge:    2.0838    magn:    0.0001    constr:    0.0000
     atom:   44    charge:    2.0865    magn:    0.0001    constr:    0.0000
     atom:   45    charge:    2.0871    magn:    0.0000    constr:    0.0000
     atom:   46    charge:    3.1171    magn:   -0.0001    constr:    0.0000
     atom:   47    charge:    2.0798    magn:    0.0002    constr:    0.0000
     atom:   48    charge:    2.0838    magn:    0.0001    constr:    0.0000
     atom:   49    charge:    2.0523    magn:   -0.0000    constr:    0.0000
     atom:   50    charge:    1.2622    magn:   -0.0000    constr:    0.0000
     atom:   51    charge:    1.2896    magn:    0.0000    constr:    0.0000

     total cpu time spent up to now is     1531.5 secs

     total energy              =   -3044.95832484 Ry
     Harris-Foulkes estimate   =   -3044.95841223 Ry
     estimated scf accuracy    <       0.00033027 Ry

     total magnetization       =     0.00 Bohr mag/cell
     absolute magnetization    =     0.00 Bohr mag/cell

     iteration #  5     ecut=    40.42 Ry     beta=0.10
     Davidson diagonalization with overlap
     ethr =  8.26E-08,  avg # of iterations =  3.0

     negative rho (up, down):  1.159E-02 1.159E-02
 
     Magnetic moment per site:
     atom:    1    charge:    3.1250    magn:   -0.0001    constr:    0.0000
     atom:    2    charge:    2.0894    magn:    0.0000    constr:    0.0000
     atom:    3    charge:    3.1196    magn:   -0.0000    constr:    0.0000
     atom:    4    charge:    2.0870    magn:    0.0000    constr:    0.0000
     atom:    5    charge:    3.1170    magn:   -0.0000    constr:    0.0000
     atom:    6    charge:    2.0917    magn:    0.0000    constr:    0.0000
     atom:    7    charge:    3.1185    magn:   -0.0000    constr:    0.0000
     atom:    8    charge:    2.0816    magn:    0.0000    constr:    0.0000
     atom:    9    charge:    3.1250    magn:   -0.0001    constr:    0.0000
     atom:   10    charge:    2.0894    magn:    0.0000    constr:    0.0000
     atom:   11    charge:    3.1196    magn:   -0.0000    constr:    0.0000
     atom:   12    charge:    2.0870    magn:    0.0000    constr:    0.0000
     atom:   13    charge:    3.1148    magn:   -0.0000    constr:    0.0000
     atom:   14    charge:    2.0911    magn:    0.0000    constr:    0.0000
     atom:   15    charge:    3.1194    magn:   -0.0000    constr:    0.0000
     atom:   16    charge:    2.0883    magn:    0.0000    constr:    0.0000
     atom:   17    charge:    2.0624    magn:    0.0002    constr:    0.0000
     atom:   18    charge:    3.1239    magn:   -0.0000    constr:    0.0000
     atom:   19    charge:    2.0878    magn:   -0.0000    constr:    0.0000
     atom:   20    charge:    2.0847    magn:   -0.0000    constr:    0.0000
     atom:   21    charge:    2.0847    magn:   -0.0000    constr:    0.0000
     atom:   22    charge:    3.1197    magn:   -0.0000    constr:    0.0000
     atom:   23    charge:    2.0909    magn:    0.0000    constr:    0.0000
     atom:   24    charge:    2.0777    magn:    0.0000    constr:    0.0000
     atom:   25    charge:    2.0869    magn:    0.0000    constr:    0.0000
     atom:   26    charge:    3.1165    magn:   -0.0000    constr:    0.0000
     atom:   27    charge:    2.0823    magn:    0.0001    constr:    0.0000
     atom:   28    charge:    2.0879    magn:    0.0000    constr:    0.0000
     atom:   29    charge:    2.0877    magn:    0.0000    constr:    0.0000
     atom:   30    charge:    3.1168    magn:   -0.0001    constr:    0.0000
     atom:   31    charge:    2.0817    magn:    0.0001    constr:    0.0000
     atom:   32    charge:    2.0843    magn:    0.0000    constr:    0.0000
     atom:   33    charge:    2.0624    magn:    0.0002    constr:    0.0000
     atom:   34    charge:    3.1239    magn:   -0.0000    constr:    0.0000
     atom:   35    charge:    2.0878    magn:   -0.0000    constr:    0.0000
     atom:   36    charge:    2.0847    magn:   -0.0000    constr:    0.0000
     atom:   37    charge:    2.0847    magn:   -0.0000    constr:    0.0000
     atom:   38    charge:    3.1197    magn:   -0.0000    constr:    0.0000
     atom:   39    charge:    2.0912    magn:    0.0000    constr:    0.0000
     atom:   40    charge:    2.0777    magn:    0.0000    constr:    0.0000
     atom:   41    charge:    2.0869    magn:    0.0000    constr:    0.0000
     atom:   42    charge:    3.1181    magn:   -0.0000    constr:    0.0000
     atom:   43    charge:    2.0838    magn:    0.0001    constr:    0.0000
     atom:   44    charge:    2.0865    magn:    0.0000    constr:    0.0000
     atom:   45    charge:    2.0871    magn:    0.0000    constr:    0.0000
     atom:   46    charge:    3.1171    magn:   -0.0001    constr:    0.0000
     atom:   47    charge:    2.0798    magn:    0.0001    constr:    0.0000
     atom:   48    charge:    2.0835    magn:    0.0001    constr:    0.0000
     atom:   49    charge:    2.0524    magn:    0.0000    constr:    0.0000
     atom:   50    charge:    1.2623    magn:   -0.0000    constr:    0.0000
     atom:   51    charge:    1.2892    magn:    0.0000    constr:    0.0000

     total cpu time spent up to now is     1751.5 secs

     total energy              =   -3044.95833625 Ry
     Harris-Foulkes estimate   =   -3044.95835241 Ry
     estimated scf accuracy    <       0.00008393 Ry

     total magnetization       =     0.00 Bohr mag/cell
     absolute magnetization    =     0.00 Bohr mag/cell

     iteration #  6     ecut=    40.42 Ry     beta=0.10
     Davidson diagonalization with overlap
     ethr =  2.10E-08,  avg # of iterations =  2.0

     negative rho (up, down):  1.158E-02 1.158E-02
 
     Magnetic moment per site:
     atom:    1    charge:    3.1250    magn:   -0.0001    constr:    0.0000
     atom:    2    charge:    2.0894    magn:    0.0000    constr:    0.0000
     atom:    3    charge:    3.1196    magn:   -0.0000    constr:    0.0000
     atom:    4    charge:    2.0870    magn:    0.0000    constr:    0.0000
     atom:    5    charge:    3.1170    magn:   -0.0000    constr:    0.0000
     atom:    6    charge:    2.0917    magn:    0.0000    constr:    0.0000
     atom:    7    charge:    3.1185    magn:   -0.0000    constr:    0.0000
     atom:    8    charge:    2.0816    magn:    0.0000    constr:    0.0000
     atom:    9    charge:    3.1250    magn:   -0.0001    constr:    0.0000
     atom:   10    charge:    2.0894    magn:    0.0000    constr:    0.0000
     atom:   11    charge:    3.1196    magn:   -0.0000    constr:    0.0000
     atom:   12    charge:    2.0870    magn:    0.0000    constr:    0.0000
     atom:   13    charge:    3.1148    magn:   -0.0000    constr:    0.0000
     atom:   14    charge:    2.0911    magn:    0.0000    constr:    0.0000
     atom:   15    charge:    3.1194    magn:   -0.0000    constr:    0.0000
     atom:   16    charge:    2.0884    magn:    0.0000    constr:    0.0000
     atom:   17    charge:    2.0624    magn:    0.0002    constr:    0.0000
     atom:   18    charge:    3.1239    magn:   -0.0000    constr:    0.0000
     atom:   19    charge:    2.0878    magn:   -0.0000    constr:    0.0000
     atom:   20    charge:    2.0847    magn:   -0.0000    constr:    0.0000
     atom:   21    charge:    2.0847    magn:   -0.0000    constr:    0.0000
     atom:   22    charge:    3.1197    magn:   -0.0000    constr:    0.0000
     atom:   23    charge:    2.0909    magn:    0.0000    constr:    0.0000
     atom:   24    charge:    2.0777    magn:    0.0000    constr:    0.0000
     atom:   25    charge:    2.0869    magn:    0.0000    constr:    0.0000
     atom:   26    charge:    3.1165    magn:   -0.0000    constr:    0.0000
     atom:   27    charge:    2.0824    magn:    0.0001    constr:    0.0000
     atom:   28    charge:    2.0879    magn:    0.0000    constr:    0.0000
     atom:   29    charge:    2.0877    magn:    0.0000    constr:    0.0000
     atom:   30    charge:    3.1168    magn:   -0.0000    constr:    0.0000
     atom:   31    charge:    2.0816    magn:    0.0001    constr:    0.0000
     atom:   32    charge:    2.0842    magn:    0.0000    constr:    0.0000
     atom:   33    charge:    2.0624    magn:    0.0002    constr:    0.0000
     atom:   34    charge:    3.1239    magn:   -0.0000    constr:    0.0000
     atom:   35    charge:    2.0878    magn:   -0.0000    constr:    0.0000
     atom:   36    charge:    2.0847    magn:   -0.0000    constr:    0.0000
     atom:   37    charge:    2.0847    magn:   -0.0000    constr:    0.0000
     atom:   38    charge:    3.1197    magn:   -0.0000    constr:    0.0000
     atom:   39    charge:    2.0912    magn:    0.0000    constr:    0.0000
     atom:   40    charge:    2.0777    magn:    0.0000    constr:    0.0000
     atom:   41    charge:    2.0869    magn:    0.0000    constr:    0.0000
     atom:   42    charge:    3.1181    magn:   -0.0000    constr:    0.0000
     atom:   43    charge:    2.0838    magn:    0.0001    constr:    0.0000
     atom:   44    charge:    2.0865    magn:    0.0000    constr:    0.0000
     atom:   45    charge:    2.0871    magn:    0.0000    constr:    0.0000
     atom:   46    charge:    3.1171    magn:   -0.0000    constr:    0.0000
     atom:   47    charge:    2.0797    magn:    0.0001    constr:    0.0000
     atom:   48    charge:    2.0834    magn:    0.0001    constr:    0.0000
     atom:   49    charge:    2.0520    magn:    0.0000    constr:    0.0000
     atom:   50    charge:    1.2625    magn:   -0.0000    constr:    0.0000
     atom:   51    charge:    1.2893    magn:    0.0000    constr:    0.0000

     total cpu time spent up to now is     1957.5 secs

     total energy              =   -3044.95833669 Ry
     Harris-Foulkes estimate   =   -3044.95834229 Ry
     estimated scf accuracy    <       0.00003092 Ry

     total magnetization       =     0.00 Bohr mag/cell
     absolute magnetization    =     0.00 Bohr mag/cell

     iteration #  7     ecut=    40.42 Ry     beta=0.10
     Davidson diagonalization with overlap
     ethr =  7.73E-09,  avg # of iterations =  2.0

     negative rho (up, down):  1.158E-02 1.158E-02
 
     Magnetic moment per site:
     atom:    1    charge:    3.1250    magn:   -0.0000    constr:    0.0000
     atom:    2    charge:    2.0894    magn:    0.0000    constr:    0.0000
     atom:    3    charge:    3.1196    magn:   -0.0000    constr:    0.0000
     atom:    4    charge:    2.0870    magn:    0.0000    constr:    0.0000
     atom:    5    charge:    3.1170    magn:   -0.0000    constr:    0.0000
     atom:    6    charge:    2.0917    magn:    0.0000    constr:    0.0000
     atom:    7    charge:    3.1185    magn:   -0.0000    constr:    0.0000
     atom:    8    charge:    2.0816    magn:    0.0000    constr:    0.0000
     atom:    9    charge:    3.1250    magn:   -0.0000    constr:    0.0000
     atom:   10    charge:    2.0894    magn:    0.0000    constr:    0.0000
     atom:   11    charge:    3.1196    magn:   -0.0000    constr:    0.0000
     atom:   12    charge:    2.0870    magn:    0.0000    constr:    0.0000
     atom:   13    charge:    3.1148    magn:   -0.0000    constr:    0.0000
     atom:   14    charge:    2.0911    magn:    0.0000    constr:    0.0000
     atom:   15    charge:    3.1194    magn:   -0.0000    constr:    0.0000
     atom:   16    charge:    2.0883    magn:    0.0000    constr:    0.0000
     atom:   17    charge:    2.0624    magn:    0.0001    constr:    0.0000
     atom:   18    charge:    3.1239    magn:   -0.0000    constr:    0.0000
     atom:   19    charge:    2.0878    magn:   -0.0000    constr:    0.0000
     atom:   20    charge:    2.0847    magn:   -0.0000    constr:    0.0000
     atom:   21    charge:    2.0847    magn:   -0.0000    constr:    0.0000
     atom:   22    charge:    3.1197    magn:   -0.0000    constr:    0.0000
     atom:   23    charge:    2.0909    magn:    0.0000    constr:    0.0000
     atom:   24    charge:    2.0777    magn:    0.0000    constr:    0.0000
     atom:   25    charge:    2.0869    magn:    0.0000    constr:    0.0000
     atom:   26    charge:    3.1165    magn:   -0.0000    constr:    0.0000
     atom:   27    charge:    2.0824    magn:    0.0001    constr:    0.0000
     atom:   28    charge:    2.0879    magn:    0.0000    constr:    0.0000
     atom:   29    charge:    2.0877    magn:    0.0000    constr:    0.0000
     atom:   30    charge:    3.1168    magn:   -0.0000    constr:    0.0000
     atom:   31    charge:    2.0816    magn:    0.0001    constr:    0.0000
     atom:   32    charge:    2.0842    magn:    0.0000    constr:    0.0000
     atom:   33    charge:    2.0624    magn:    0.0001    constr:    0.0000
     atom:   34    charge:    3.1239    magn:   -0.0000    constr:    0.0000
     atom:   35    charge:    2.0878    magn:   -0.0000    constr:    0.0000
     atom:   36    charge:    2.0847    magn:   -0.0000    constr:    0.0000
     atom:   37    charge:    2.0847    magn:   -0.0000    constr:    0.0000
     atom:   38    charge:    3.1197    magn:   -0.0000    constr:    0.0000
     atom:   39    charge:    2.0912    magn:    0.0000    constr:    0.0000
     atom:   40    charge:    2.0777    magn:    0.0000    constr:    0.0000
     atom:   41    charge:    2.0869    magn:    0.0000    constr:    0.0000
     atom:   42    charge:    3.1181    magn:   -0.0000    constr:    0.0000
     atom:   43    charge:    2.0838    magn:    0.0001    constr:    0.0000
     atom:   44    charge:    2.0865    magn:    0.0000    constr:    0.0000
     atom:   45    charge:    2.0871    magn:    0.0000    constr:    0.0000
     atom:   46    charge:    3.1171    magn:   -0.0000    constr:    0.0000
     atom:   47    charge:    2.0797    magn:    0.0001    constr:    0.0000
     atom:   48    charge:    2.0835    magn:    0.0000    constr:    0.0000
     atom:   49    charge:    2.0518    magn:    0.0000    constr:    0.0000
     atom:   50    charge:    1.2626    magn:   -0.0000    constr:    0.0000
     atom:   51    charge:    1.2893    magn:    0.0000    constr:    0.0000

     total cpu time spent up to now is     2165.2 secs

     total energy              =   -3044.95833896 Ry
     Harris-Foulkes estimate   =   -3044.95833896 Ry
     estimated scf accuracy    <       0.00000605 Ry

     total magnetization       =     0.00 Bohr mag/cell
     absolute magnetization    =     0.00 Bohr mag/cell

     iteration #  8     ecut=    40.42 Ry     beta=0.10
     Davidson diagonalization with overlap
     ethr =  1.51E-09,  avg # of iterations =  2.0

     negative rho (up, down):  1.158E-02 1.158E-02
 
     Magnetic moment per site:
     atom:    1    charge:    3.1250    magn:   -0.0000    constr:    0.0000
     atom:    2    charge:    2.0894    magn:    0.0000    constr:    0.0000
     atom:    3    charge:    3.1196    magn:   -0.0000    constr:    0.0000
     atom:    4    charge:    2.0870    magn:    0.0000    constr:    0.0000
     atom:    5    charge:    3.1170    magn:   -0.0000    constr:    0.0000
     atom:    6    charge:    2.0917    magn:    0.0000    constr:    0.0000
     atom:    7    charge:    3.1185    magn:   -0.0000    constr:    0.0000
     atom:    8    charge:    2.0816    magn:    0.0000    constr:    0.0000
     atom:    9    charge:    3.1250    magn:   -0.0000    constr:    0.0000
     atom:   10    charge:    2.0894    magn:    0.0000    constr:    0.0000
     atom:   11    charge:    3.1196    magn:   -0.0000    constr:    0.0000
     atom:   12    charge:    2.0870    magn:    0.0000    constr:    0.0000
     atom:   13    charge:    3.1148    magn:   -0.0000    constr:    0.0000
     atom:   14    charge:    2.0911    magn:    0.0000    constr:    0.0000
     atom:   15    charge:    3.1194    magn:   -0.0000    constr:    0.0000
     atom:   16    charge:    2.0883    magn:    0.0000    constr:    0.0000
     atom:   17    charge:    2.0624    magn:    0.0001    constr:    0.0000
     atom:   18    charge:    3.1239    magn:   -0.0000    constr:    0.0000
     atom:   19    charge:    2.0878    magn:   -0.0000    constr:    0.0000
     atom:   20    charge:    2.0847    magn:   -0.0000    constr:    0.0000
     atom:   21    charge:    2.0847    magn:   -0.0000    constr:    0.0000
     atom:   22    charge:    3.1197    magn:   -0.0000    constr:    0.0000
     atom:   23    charge:    2.0909    magn:    0.0000    constr:    0.0000
     atom:   24    charge:    2.0777    magn:    0.0000    constr:    0.0000
     atom:   25    charge:    2.0869    magn:    0.0000    constr:    0.0000
     atom:   26    charge:    3.1165    magn:   -0.0000    constr:    0.0000
     atom:   27    charge:    2.0824    magn:    0.0000    constr:    0.0000
     atom:   28    charge:    2.0879    magn:    0.0000    constr:    0.0000
     atom:   29    charge:    2.0877    magn:    0.0000    constr:    0.0000
     atom:   30    charge:    3.1168    magn:   -0.0000    constr:    0.0000
     atom:   31    charge:    2.0816    magn:    0.0001    constr:    0.0000
     atom:   32    charge:    2.0842    magn:    0.0000    constr:    0.0000
     atom:   33    charge:    2.0624    magn:    0.0001    constr:    0.0000
     atom:   34    charge:    3.1239    magn:   -0.0000    constr:    0.0000
     atom:   35    charge:    2.0878    magn:   -0.0000    constr:    0.0000
     atom:   36    charge:    2.0847    magn:   -0.0000    constr:    0.0000
     atom:   37    charge:    2.0847    magn:   -0.0000    constr:    0.0000
     atom:   38    charge:    3.1197    magn:   -0.0000    constr:    0.0000
     atom:   39    charge:    2.0912    magn:    0.0000    constr:    0.0000
     atom:   40    charge:    2.0777    magn:    0.0000    constr:    0.0000
     atom:   41    charge:    2.0869    magn:    0.0000    constr:    0.0000
     atom:   42    charge:    3.1181    magn:   -0.0000    constr:    0.0000
     atom:   43    charge:    2.0838    magn:    0.0000    constr:    0.0000
     atom:   44    charge:    2.0865    magn:    0.0000    constr:    0.0000
     atom:   45    charge:    2.0871    magn:    0.0000    constr:    0.0000
     atom:   46    charge:    3.1171    magn:   -0.0000    constr:    0.0000
     atom:   47    charge:    2.0797    magn:    0.0001    constr:    0.0000
     atom:   48    charge:    2.0835    magn:    0.0000    constr:    0.0000
     atom:   49    charge:    2.0518    magn:    0.0000    constr:    0.0000
     atom:   50    charge:    1.2627    magn:   -0.0000    constr:    0.0000
     atom:   51    charge:    1.2893    magn:    0.0000    constr:    0.0000

     total cpu time spent up to now is     2372.7 secs

     total energy              =   -3044.95833929 Ry
     Harris-Foulkes estimate   =   -3044.95833925 Ry
     estimated scf accuracy    <       0.00000160 Ry

     total magnetization       =     0.00 Bohr mag/cell
     absolute magnetization    =     0.00 Bohr mag/cell

     iteration #  9     ecut=    40.42 Ry     beta=0.10
     Davidson diagonalization with overlap
     ethr =  3.99E-10,  avg # of iterations =  2.0

     negative rho (up, down):  1.158E-02 1.158E-02
 
     Magnetic moment per site:
     atom:    1    charge:    3.1250    magn:   -0.0000    constr:    0.0000
     atom:    2    charge:    2.0894    magn:    0.0000    constr:    0.0000
     atom:    3    charge:    3.1196    magn:   -0.0000    constr:    0.0000
     atom:    4    charge:    2.0870    magn:    0.0000    constr:    0.0000
     atom:    5    charge:    3.1170    magn:   -0.0000    constr:    0.0000
     atom:    6    charge:    2.0917    magn:    0.0000    constr:    0.0000
     atom:    7    charge:    3.1185    magn:   -0.0000    constr:    0.0000
     atom:    8    charge:    2.0816    magn:    0.0000    constr:    0.0000
     atom:    9    charge:    3.1250    magn:   -0.0000    constr:    0.0000
     atom:   10    charge:    2.0894    magn:    0.0000    constr:    0.0000
     atom:   11    charge:    3.1196    magn:   -0.0000    constr:    0.0000
     atom:   12    charge:    2.0870    magn:    0.0000    constr:    0.0000
     atom:   13    charge:    3.1148    magn:   -0.0000    constr:    0.0000
     atom:   14    charge:    2.0911    magn:    0.0000    constr:    0.0000
     atom:   15    charge:    3.1194    magn:   -0.0000    constr:    0.0000
     atom:   16    charge:    2.0883    magn:    0.0000    constr:    0.0000
     atom:   17    charge:    2.0624    magn:    0.0001    constr:    0.0000
     atom:   18    charge:    3.1239    magn:   -0.0000    constr:    0.0000
     atom:   19    charge:    2.0878    magn:   -0.0000    constr:    0.0000
     atom:   20    charge:    2.0847    magn:   -0.0000    constr:    0.0000
     atom:   21    charge:    2.0847    magn:   -0.0000    constr:    0.0000
     atom:   22    charge:    3.1197    magn:   -0.0000    constr:    0.0000
     atom:   23    charge:    2.0909    magn:    0.0000    constr:    0.0000
     atom:   24    charge:    2.0777    magn:    0.0000    constr:    0.0000
     atom:   25    charge:    2.0869    magn:    0.0000    constr:    0.0000
     atom:   26    charge:    3.1165    magn:   -0.0000    constr:    0.0000
     atom:   27    charge:    2.0824    magn:    0.0000    constr:    0.0000
     atom:   28    charge:    2.0879    magn:    0.0000    constr:    0.0000
     atom:   29    charge:    2.0877    magn:    0.0000    constr:    0.0000
     atom:   30    charge:    3.1168    magn:   -0.0000    constr:    0.0000
     atom:   31    charge:    2.0816    magn:    0.0000    constr:    0.0000
     atom:   32    charge:    2.0843    magn:    0.0000    constr:    0.0000
     atom:   33    charge:    2.0624    magn:    0.0001    constr:    0.0000
     atom:   34    charge:    3.1239    magn:   -0.0000    constr:    0.0000
     atom:   35    charge:    2.0878    magn:   -0.0000    constr:    0.0000
     atom:   36    charge:    2.0847    magn:   -0.0000    constr:    0.0000
     atom:   37    charge:    2.0847    magn:   -0.0000    constr:    0.0000
     atom:   38    charge:    3.1197    magn:   -0.0000    constr:    0.0000
     atom:   39    charge:    2.0912    magn:    0.0000    constr:    0.0000
     atom:   40    charge:    2.0777    magn:    0.0000    constr:    0.0000
     atom:   41    charge:    2.0869    magn:    0.0000    constr:    0.0000
     atom:   42    charge:    3.1181    magn:   -0.0000    constr:    0.0000
     atom:   43    charge:    2.0838    magn:    0.0000    constr:    0.0000
     atom:   44    charge:    2.0865    magn:    0.0000    constr:    0.0000
     atom:   45    charge:    2.0871    magn:    0.0000    constr:    0.0000
     atom:   46    charge:    3.1171    magn:   -0.0000    constr:    0.0000
     atom:   47    charge:    2.0797    magn:    0.0000    constr:    0.0000
     atom:   48    charge:    2.0836    magn:    0.0000    constr:    0.0000
     atom:   49    charge:    2.0518    magn:    0.0000    constr:    0.0000
     atom:   50    charge:    1.2628    magn:   -0.0000    constr:    0.0000
     atom:   51    charge:    1.2893    magn:    0.0000    constr:    0.0000

     total cpu time spent up to now is     2574.0 secs

     total energy              =   -3044.95833927 Ry
     Harris-Foulkes estimate   =   -3044.95833933 Ry
     estimated scf accuracy    <       0.00000075 Ry

     total magnetization       =     0.00 Bohr mag/cell
     absolute magnetization    =     0.00 Bohr mag/cell

     iteration # 10     ecut=    40.42 Ry     beta=0.10
     Davidson diagonalization with overlap
     ethr =  1.87E-10,  avg # of iterations =  3.0

     negative rho (up, down):  1.158E-02 1.158E-02
 
     Magnetic moment per site:
     atom:    1    charge:    3.1250    magn:   -0.0000    constr:    0.0000
     atom:    2    charge:    2.0894    magn:    0.0000    constr:    0.0000
     atom:    3    charge:    3.1196    magn:   -0.0000    constr:    0.0000
     atom:    4    charge:    2.0870    magn:    0.0000    constr:    0.0000
     atom:    5    charge:    3.1170    magn:   -0.0000    constr:    0.0000
     atom:    6    charge:    2.0917    magn:    0.0000    constr:    0.0000
     atom:    7    charge:    3.1185    magn:   -0.0000    constr:    0.0000
     atom:    8    charge:    2.0816    magn:    0.0000    constr:    0.0000
     atom:    9    charge:    3.1250    magn:   -0.0000    constr:    0.0000
     atom:   10    charge:    2.0894    magn:    0.0000    constr:    0.0000
     atom:   11    charge:    3.1196    magn:   -0.0000    constr:    0.0000
     atom:   12    charge:    2.0870    magn:    0.0000    constr:    0.0000
     atom:   13    charge:    3.1148    magn:   -0.0000    constr:    0.0000
     atom:   14    charge:    2.0911    magn:    0.0000    constr:    0.0000
     atom:   15    charge:    3.1194    magn:   -0.0000    constr:    0.0000
     atom:   16    charge:    2.0883    magn:    0.0000    constr:    0.0000
     atom:   17    charge:    2.0624    magn:    0.0000    constr:    0.0000
     atom:   18    charge:    3.1239    magn:   -0.0000    constr:    0.0000
     atom:   19    charge:    2.0878    magn:   -0.0000    constr:    0.0000
     atom:   20    charge:    2.0847    magn:   -0.0000    constr:    0.0000
     atom:   21    charge:    2.0847    magn:   -0.0000    constr:    0.0000
     atom:   22    charge:    3.1197    magn:   -0.0000    constr:    0.0000
     atom:   23    charge:    2.0909    magn:    0.0000    constr:    0.0000
     atom:   24    charge:    2.0777    magn:    0.0000    constr:    0.0000
     atom:   25    charge:    2.0869    magn:    0.0000    constr:    0.0000
     atom:   26    charge:    3.1165    magn:   -0.0000    constr:    0.0000
     atom:   27    charge:    2.0824    magn:    0.0000    constr:    0.0000
     atom:   28    charge:    2.0879    magn:    0.0000    constr:    0.0000
     atom:   29    charge:    2.0877    magn:    0.0000    constr:    0.0000
     atom:   30    charge:    3.1168    magn:   -0.0000    constr:    0.0000
     atom:   31    charge:    2.0816    magn:    0.0000    constr:    0.0000
     atom:   32    charge:    2.0843    magn:    0.0000    constr:    0.0000
     atom:   33    charge:    2.0624    magn:    0.0000    constr:    0.0000
     atom:   34    charge:    3.1239    magn:   -0.0000    constr:    0.0000
     atom:   35    charge:    2.0878    magn:   -0.0000    constr:    0.0000
     atom:   36    charge:    2.0847    magn:   -0.0000    constr:    0.0000
     atom:   37    charge:    2.0847    magn:   -0.0000    constr:    0.0000
     atom:   38    charge:    3.1197    magn:   -0.0000    constr:    0.0000
     atom:   39    charge:    2.0912    magn:    0.0000    constr:    0.0000
     atom:   40    charge:    2.0777    magn:    0.0000    constr:    0.0000
     atom:   41    charge:    2.0869    magn:    0.0000    constr:    0.0000
     atom:   42    charge:    3.1181    magn:   -0.0000    constr:    0.0000
     atom:   43    charge:    2.0838    magn:    0.0000    constr:    0.0000
     atom:   44    charge:    2.0865    magn:    0.0000    constr:    0.0000
     atom:   45    charge:    2.0871    magn:    0.0000    constr:    0.0000
     atom:   46    charge:    3.1171    magn:   -0.0000    constr:    0.0000
     atom:   47    charge:    2.0797    magn:    0.0000    constr:    0.0000
     atom:   48    charge:    2.0835    magn:    0.0000    constr:    0.0000
     atom:   49    charge:    2.0519    magn:    0.0000    constr:    0.0000
     atom:   50    charge:    1.2628    magn:   -0.0000    constr:    0.0000
     atom:   51    charge:    1.2893    magn:    0.0000    constr:    0.0000

     total cpu time spent up to now is     2792.5 secs

     End of self-consistent calculation

 ------ SPIN UP ------------


          k = 0.0000 0.0000 0.0000 ( 34665 PWs)   bands (ev):

   -57.8173 -57.7824 -57.5063 -57.4506 -57.3814 -57.3452 -57.2724 -57.2371
   -57.1746 -57.1393 -57.1107 -57.0754 -56.8786 -56.8062 -56.2796 -56.2443
   -34.2537 -34.0984 -34.0699 -34.0531 -34.0189 -33.9245 -33.8638 -33.8573
   -33.8203 -33.7658 -33.7261 -33.7157 -33.7119 -33.6810 -33.6659 -33.6616
   -33.6424 -33.6330 -33.6107 -33.5509 -33.5182 -33.4537 -33.4521 -33.4331
   -33.4261 -33.4234 -33.3824 -33.3765 -33.3727 -33.3546 -33.3502 -33.3299
   -33.3068 -33.3006 -33.2736 -33.2676 -33.2420 -33.1397 -33.1349 -33.0777
   -33.0336 -32.9330 -32.6983 -32.6307 -32.6047 -32.5023 -32.4105 -32.3023
   -24.3096 -21.0885 -18.1696 -17.9696 -17.7457 -17.6239 -17.4891 -17.4875
   -17.2064 -17.1863 -17.1396 -17.0485 -17.0449 -17.0043 -16.9876 -16.9147
   -16.8676 -16.8559 -16.8323 -16.7922 -16.7314 -16.6842 -16.5657 -16.5437
   -16.5150 -16.5006 -16.4158 -16.3060 -16.2702 -16.2390 -16.1025 -16.0728
   -14.8619 -14.7771  -9.7877  -7.5466  -7.5270  -6.0051  -5.5617  -5.5057
    -5.3539  -5.3457  -5.2890  -4.9910  -4.9324  -4.5817  -4.5785  -4.5429
    -4.5328  -4.4855  -4.3619  -4.2649  -4.2161  -4.1985  -4.1646  -4.1615
    -4.1581  -4.1495  -4.0849  -4.0806  -4.0032  -3.9813  -3.9498  -3.9075
    -3.8749  -3.8002  -3.7676  -3.7432  -3.7135  -3.6380  -3.6166  -3.5416
    -3.5386  -3.5132  -3.4463  -3.3279  -3.1970  -3.1610  -3.0593  -2.9995
    -2.9674  -2.8699  -2.8397  -2.8087  -2.7367  -2.7346  -2.7198  -2.5951
    -2.5567  -2.5014  -2.4303  -2.3935  -2.3656  -2.3464  -2.3198  -2.2764
    -2.2735  -2.2414  -2.2057  -2.1787  -2.1697  -2.0446  -1.9877  -1.8874
    -1.7457  -1.7432  -1.7153  -1.6756  -1.6467  -1.6359  -1.5583  -1.5356
    -1.4367  -1.4270  -1.4032  -1.3909  -1.3813  -1.2773  -1.2263  -1.2169
    -1.1962  -1.1268  -1.0661  -1.0104  -0.9117  -0.7375  -0.7083  -0.7036
    -0.6395  -0.5119  -0.3664  -0.2296  -0.1660  -0.0029   0.1237   0.1388
     1.5246   1.5537   1.8389   1.8772   1.8868   1.9083   2.0756   2.0944
     2.1293   2.2461   2.3649   2.3783   2.4130   2.4326   2.4704   2.4866
     2.5323   2.5700   2.6414   2.6729   2.6831   2.7581   2.7687   2.8337
     2.8749   2.9019   2.9926   3.0013   3.0026   3.0291   3.0709   3.0887
     3.0982   3.1050   3.1111   3.1449   3.2443   3.3034   3.3095   3.3460
     3.3586   3.3891   3.4241   3.5373   3.5404   3.6775   3.8842   3.9903
     4.0184   4.0485   4.0611   4.1864   4.2583   4.4651   4.5355   4.6635
     4.9131   4.9205   5.0174   5.1260   5.2116   5.3945   5.4009   5.4275
     5.5040   5.5877   5.6352   5.6430   5.7214   5.7388   5.7434   5.7502
     5.9274   5.9618   6.0166   6.0279   6.1046   6.1487   6.2039   6.2259
     6.4807   6.6179   6.7743   6.7889   6.8865   7.1691   7.2236   7.2798
     7.8921   7.9842   8.1600   8.3907   8.7078   8.9026   8.9151   8.9538
     9.2049   9.2579   9.2896   9.3509

          k = 0.0000 0.0280 0.0000 ( 34717 PWs)   bands (ev):

   -57.8150 -57.7847 -57.5048 -57.4521 -57.3791 -57.3475 -57.2700 -57.2394
   -57.1723 -57.1417 -57.1084 -57.0777 -56.8774 -56.8074 -56.2772 -56.2467
   -34.2283 -34.0964 -34.0718 -34.0273 -34.0127 -33.9310 -33.8908 -33.8321
   -33.8139 -33.7416 -33.7287 -33.7200 -33.7111 -33.6815 -33.6661 -33.6627
   -33.6405 -33.6090 -33.6043 -33.5439 -33.5271 -33.4773 -33.4516 -33.4427
   -33.4279 -33.4174 -33.3998 -33.3724 -33.3562 -33.3536 -33.3489 -33.3364
   -33.3066 -33.3057 -33.2986 -33.2694 -33.2677 -33.1392 -33.1319 -33.0783
   -33.0379 -32.9612 -32.6726 -32.6290 -32.6065 -32.4961 -32.4168 -32.3298
   -24.3096 -21.0884 -18.1080 -17.9116 -17.6928 -17.5706 -17.4680 -17.4409
   -17.2225 -17.1831 -17.1561 -17.1148 -17.0503 -17.0006 -16.9775 -16.9003
   -16.8834 -16.8391 -16.8239 -16.7926 -16.7621 -16.7417 -16.5898 -16.5312
   -16.5134 -16.4941 -16.4453 -16.3021 -16.2880 -16.2566 -16.1279 -16.1152
   -14.8717 -14.8004  -9.7876  -7.5481  -7.5269  -6.0041  -5.4735  -5.4215
    -5.2766  -5.2656  -5.2117  -4.8731  -4.8573  -4.6058  -4.5766  -4.5098
    -4.4820  -4.4474  -4.3106  -4.2874  -4.2815  -4.2337  -4.2267  -4.1893
    -4.1523  -4.1382  -4.1029  -4.0907  -4.0728  -4.0471  -4.0034  -3.9808
    -3.9229  -3.9162  -3.8565  -3.7980  -3.7311  -3.7160  -3.6949  -3.5603
    -3.4806  -3.4658  -3.3757  -3.3090  -3.1252  -3.0773  -2.9867  -2.9571
    -2.8445  -2.8122  -2.7514  -2.7446  -2.6650  -2.6337  -2.6290  -2.6116
    -2.5639  -2.5523  -2.5141  -2.4500  -2.4089  -2.3432  -2.3165  -2.2757
    -2.2315  -2.2131  -2.1975  -2.1208  -2.0470  -2.0133  -1.9349  -1.8667
    -1.8353  -1.8131  -1.7824  -1.7685  -1.6916  -1.6677  -1.6262  -1.5931
    -1.5514  -1.4875  -1.4605  -1.4031  -1.3824  -1.3512  -1.2693  -1.2309
    -1.1844  -1.1477  -1.0616  -1.0248  -0.9415  -0.9070  -0.8393  -0.7529
    -0.7249  -0.5266  -0.4070  -0.2214  -0.2187   0.0079   0.0783   0.1032
     1.6103   1.6571   1.8675   1.8788   1.9330   2.0077   2.0533   2.1211
     2.1779   2.2740   2.3268   2.3816   2.3849   2.4479   2.4588   2.4892
     2.5258   2.5531   2.5972   2.6587   2.7175   2.7729   2.7899   2.8041
     2.8410   2.8825   2.9493   2.9637   2.9943   3.0258   3.0502   3.0783
     3.1019   3.1100   3.1943   3.2116   3.2614   3.3232   3.3607   3.4193
     3.4231   3.4760   3.5087   3.5129   3.5775   3.6443   3.8346   3.9490
     4.0008   4.0593   4.1376   4.1706   4.1901   4.4081   4.5952   4.7617
     4.9193   5.0004   5.1152   5.1852   5.2158   5.4129   5.4353   5.4850
     5.4976   5.5709   5.6033   5.6285   5.6769   5.7020   5.7395   5.8271
     5.8549   5.9392   5.9831   6.0215   6.0250   6.0329   6.1229   6.2888
     6.4595   6.5477   6.7175   6.7919   6.8150   7.0744   7.1483   7.3698
     7.6766   7.9858   8.0963   8.2797   8.4139   8.6957   8.9850   9.0280
     9.0824   9.2939   9.3557   9.4034

          k = 0.0000 0.0560 0.0000 ( 34721 PWs)   bands (ev):

   -57.8086 -57.7911 -57.5015 -57.4554 -57.3730 -57.3537 -57.2636 -57.2459
   -57.1659 -57.1481 -57.1020 -57.0842 -56.8748 -56.8101 -56.2708 -56.2532
   -34.1585 -34.0911 -34.0768 -33.9956 -33.9638 -33.9568 -33.9485 -33.7979
   -33.7671 -33.7572 -33.7439 -33.7088 -33.6983 -33.6852 -33.6679 -33.6652
   -33.5868 -33.5706 -33.5676 -33.5404 -33.5282 -33.5244 -33.4732 -33.4667
   -33.4463 -33.4326 -33.4010 -33.3750 -33.3680 -33.3541 -33.3513 -33.3472
   -33.3332 -33.3188 -33.2972 -33.2954 -33.2607 -33.1385 -33.1282 -33.0795
   -33.0515 -33.0287 -32.6243 -32.6113 -32.6018 -32.4796 -32.4337 -32.4040
   -24.3095 -21.0883 -17.9365 -17.7515 -17.5530 -17.4405 -17.4213 -17.4157
   -17.3128 -17.2865 -17.1737 -17.0733 -17.0726 -17.0400 -17.0163 -16.9746
   -16.8567 -16.8501 -16.8458 -16.8068 -16.7453 -16.6798 -16.6536 -16.6088
   -16.5261 -16.4661 -16.4410 -16.3251 -16.3158 -16.2757 -16.2403 -16.1776
   -14.8893 -14.8507  -9.7873  -7.5511  -7.5265  -6.0022  -5.2307  -5.1862
    -5.0693  -5.0364  -5.0031  -4.7299  -4.6582  -4.6206  -4.5451  -4.5364
    -4.5081  -4.4915  -4.4619  -4.3853  -4.3530  -4.3452  -4.3219  -4.3175
    -4.2502  -4.2130  -4.1919  -4.1421  -4.1282  -4.0876  -4.0629  -4.0115
    -3.9493  -3.9217  -3.8513  -3.7764  -3.7202  -3.5987  -3.5702  -3.4775
    -3.4149  -3.3804  -3.3596  -3.2643  -3.1709  -3.0238  -2.9732  -2.9583
    -2.9518  -2.8755  -2.7867  -2.7342  -2.6852  -2.6492  -2.6044  -2.4637
    -2.4495  -2.4424  -2.4088  -2.3871  -2.3331  -2.2980  -2.2751  -2.2707
    -2.1978  -2.1751  -2.0933  -2.0638  -2.0413  -2.0317  -2.0047  -1.9841
    -1.9347  -1.8972  -1.8606  -1.7867  -1.7093  -1.6764  -1.6632  -1.6507
    -1.6336  -1.5654  -1.5119  -1.4962  -1.4762  -1.4364  -1.3661  -1.3511
    -1.2761  -1.2346  -1.1613  -1.1359  -1.0567  -0.9927  -0.9224  -0.8878
    -0.7932  -0.7081  -0.5888  -0.3861  -0.0378   0.0185   0.0493   0.0524
     1.7471   1.8934   1.9095   1.9891   2.0210   2.0636   2.1406   2.2078
     2.2274   2.2639   2.2691   2.2812   2.3130   2.3615   2.3842   2.5189
     2.5292   2.5635   2.6525   2.6692   2.7438   2.7575   2.7720   2.8102
     2.8170   2.8405   2.8599   2.9475   2.9725   3.0184   3.0926   3.1014
     3.1231   3.1808   3.2037   3.2265   3.3316   3.3769   3.4145   3.4885
     3.5005   3.5624   3.6204   3.6728   3.6923   3.7278   3.7474   3.8549
     3.9886   4.0012   4.0172   4.1003   4.2432   4.3352   4.7231   4.8506
     5.0363   5.1644   5.2582   5.3067   5.3368   5.3844   5.4075   5.4845
     5.5299   5.6032   5.6169   5.6256   5.6498   5.6975   5.7343   5.7441
     5.7613   5.7984   5.8372   5.9019   5.9840   6.0287   6.1930   6.2978
     6.3681   6.4068   6.6470   6.6528   6.7105   6.9071   7.0125   7.2691
     7.4698   7.6657   7.7709   8.2635   8.4086   8.5955   8.8981   9.0329
     9.1851   9.3534   9.4477   9.5597

          k = 0.0000-0.0840 0.0000 ( 34678 PWs)   bands (ev):

   -57.7999 -57.7999 -57.4997 -57.4573 -57.3672 -57.3595 -57.2549 -57.2547
   -57.1584 -57.1556 -57.0941 -57.0921 -56.8734 -56.8115 -56.2620 -56.2620
   -34.0840 -34.0840 -34.0619 -34.0619 -33.9721 -33.9721 -33.8741 -33.8411
   -33.7809 -33.7623 -33.7103 -33.7038 -33.6879 -33.6709 -33.6631 -33.6514
   -33.5716 -33.5714 -33.5637 -33.5565 -33.4967 -33.4962 -33.4747 -33.4723
   -33.4494 -33.4417 -33.4394 -33.4390 -33.3786 -33.3763 -33.3499 -33.3468
   -33.3369 -33.3349 -33.2905 -33.2887 -33.1942 -33.1606 -33.1352 -33.0848
   -33.0794 -33.0482 -32.6177 -32.6177 -32.5039 -32.5038 -32.4566 -32.4566
   -24.3095 -21.0882 -17.6985 -17.6867 -17.5308 -17.5301 -17.4140 -17.3956
   -17.2403 -17.2345 -17.1731 -17.1725 -17.1376 -17.1343 -16.9598 -16.9596
   -16.9358 -16.9318 -16.7662 -16.7408 -16.7124 -16.7107 -16.6395 -16.6326
   -16.5460 -16.5005 -16.3730 -16.3714 -16.3268 -16.3255 -16.2456 -16.2447
   -14.8875 -14.8875  -9.7872  -7.5525  -7.5262  -6.0014  -4.9193  -4.9162
    -4.8531  -4.8530  -4.7995  -4.7848  -4.7589  -4.7524  -4.7148  -4.6937
    -4.5224  -4.5038  -4.4897  -4.4877  -4.4190  -4.4174  -4.4129  -4.4102
    -4.2540  -4.2154  -4.1529  -4.1514  -4.1396  -4.1172  -4.0034  -3.9483
    -3.9473  -3.9112  -3.8358  -3.7923  -3.6496  -3.6106  -3.4581  -3.4466
    -3.2960  -3.2856  -3.2292  -3.1480  -3.1305  -3.0999  -2.9686  -2.9634
    -2.9401  -2.8842  -2.8543  -2.8186  -2.7099  -2.6847  -2.6630  -2.6456
    -2.6206  -2.6118  -2.5691  -2.4522  -2.4491  -2.4175  -2.1546  -2.1195
    -2.0967  -2.0517  -2.0098  -1.9783  -1.9292  -1.9288  -1.9227  -1.8742
    -1.8650  -1.8607  -1.8424  -1.7859  -1.7714  -1.7057  -1.6261  -1.6255
    -1.5856  -1.5680  -1.5517  -1.5502  -1.5425  -1.5378  -1.5179  -1.4090
    -1.3693  -1.2594  -1.2469  -1.2184  -1.1241  -1.1184  -1.0949  -1.0890
    -0.6786  -0.6275  -0.5914  -0.5848   0.0181   0.0185   0.0551   0.0554
     1.9124   1.9162   2.0164   2.0180   2.1046   2.1048   2.1108   2.1335
     2.2268   2.2268   2.2327   2.2481   2.3468   2.3877   2.4357   2.4381
     2.5302   2.5348   2.5985   2.5991   2.7543   2.7646   2.7968   2.8292
     2.8357   2.8721   2.9096   2.9525   2.9792   2.9996   3.0646   3.0818
     3.0850   3.2203   3.2619   3.3285   3.3351   3.3370   3.3381   3.5121
     3.6224   3.6252   3.6924   3.7056   3.7334   3.7926   3.7941   3.8752
     3.9274   3.9297   3.9932   3.9936   4.1319   4.4231   4.7987   4.8228
     5.1555   5.1760   5.2931   5.3303   5.3878   5.3878   5.4984   5.5247
     5.5593   5.5765   5.5880   5.6467   5.6643   5.6918   5.7105   5.7107
     5.7460   5.8221   5.8378   5.8571   5.9972   6.0051   6.0396   6.0712
     6.4208   6.4253   6.5562   6.5897   6.8500   6.8558   6.9614   6.9732
     7.4251   7.4937   7.6211   8.1907   8.3301   8.6387   9.0373   9.1049
     9.3553   9.4224   9.6162   9.6662

          k = 0.0253 0.0000 0.0000 ( 34707 PWs)   bands (ev):

   -57.8173 -57.7824 -57.5063 -57.4506 -57.3814 -57.3452 -57.2724 -57.2371
   -57.1747 -57.1393 -57.1108 -57.0754 -56.8786 -56.8062 -56.2796 -56.2443
   -34.2540 -34.0984 -34.0699 -34.0532 -34.0182 -33.9246 -33.8639 -33.8579
   -33.8203 -33.7672 -33.7257 -33.7152 -33.7112 -33.6820 -33.6728 -33.6662
   -33.6425 -33.6191 -33.6089 -33.5453 -33.5187 -33.4536 -33.4522 -33.4327
   -33.4261 -33.4235 -33.3818 -33.3799 -33.3727 -33.3601 -33.3490 -33.3299
   -33.3067 -33.3005 -33.2738 -33.2676 -33.2421 -33.1408 -33.1350 -33.0777
   -33.0337 -32.9331 -32.6982 -32.6318 -32.6042 -32.5022 -32.4106 -32.3024
   -24.3096 -21.0884 -18.1413 -17.9281 -17.7052 -17.5861 -17.4883 -17.4844
   -17.2644 -17.2253 -17.1388 -17.0547 -17.0480 -17.0388 -17.0117 -16.9559
   -16.9112 -16.8914 -16.8155 -16.7815 -16.6974 -16.6025 -16.6006 -16.5157
   -16.5124 -16.5066 -16.4586 -16.3064 -16.2606 -16.2396 -16.1020 -16.0729
   -14.8607 -14.7769  -9.7870  -7.5468  -7.5269  -6.0045  -5.5313  -5.3899
    -5.2445  -5.2322  -5.1816  -4.9828  -4.9310  -4.7749  -4.5749  -4.5625
    -4.5094  -4.4872  -4.4384  -4.4315  -4.3283  -4.1922  -4.1815  -4.1631
    -4.0869  -4.0699  -4.0647  -3.9805  -3.9639  -3.9304  -3.8709  -3.8351
    -3.8280  -3.8049  -3.7675  -3.7242  -3.6951  -3.6148  -3.5750  -3.4867
    -3.4563  -3.4182  -3.3306  -3.2545  -3.2124  -3.1516  -3.1328  -3.0373
    -3.0154  -2.9241  -2.8857  -2.8268  -2.7522  -2.7190  -2.6966  -2.6700
    -2.6456  -2.6070  -2.4964  -2.4939  -2.4446  -2.3723  -2.3540  -2.3107
    -2.2468  -2.2111  -2.2081  -2.1254  -2.0930  -2.0251  -1.9316  -1.8906
    -1.7957  -1.7720  -1.7462  -1.7200  -1.6985  -1.6294  -1.6038  -1.4903
    -1.4797  -1.4691  -1.4259  -1.4027  -1.3564  -1.3341  -1.2667  -1.2499
    -1.2251  -1.1119  -1.0900  -0.9883  -0.9542  -0.8928  -0.8043  -0.7661
    -0.6870  -0.5560  -0.3609  -0.2564  -0.1970  -0.0170   0.0812   0.0821
     1.5420   1.6089   1.8860   1.9061   2.0014   2.0158   2.0641   2.1419
     2.2238   2.2525   2.3233   2.3315   2.3752   2.4234   2.4431   2.4583
     2.4727   2.5421   2.5590   2.6149   2.6807   2.7070   2.8149   2.8364
     2.8515   2.9071   3.0030   3.0090   3.0177   3.0845   3.0944   3.1038
     3.1537   3.1955   3.2112   3.2494   3.3018   3.3395   3.3514   3.3918
     3.3998   3.4404   3.4702   3.5029   3.6000   3.6233   3.8146   3.9066
     4.0428   4.0719   4.0853   4.1740   4.2431   4.4183   4.6414   4.6894
     4.7753   4.9349   4.9472   4.9955   5.0168   5.0395   5.2204   5.4997
     5.5730   5.6444   5.7366   5.7456   5.7902   5.8386   5.9430   5.9587
     5.9818   6.0433   6.0469   6.0781   6.1415   6.1562   6.2462   6.3219
     6.4950   6.6324   6.7433   6.7825   6.8905   7.0437   7.1690   7.3125
     7.5727   8.0352   8.1497   8.3472   8.3977   8.7585   8.8165   8.9210
     8.9560   9.2444   9.2963   9.4231

          k = 0.0253 0.0280 0.0000 ( 34687 PWs)   bands (ev):

   -57.8150 -57.7847 -57.5048 -57.4521 -57.3791 -57.3475 -57.2700 -57.2394
   -57.1723 -57.1417 -57.1084 -57.0777 -56.8774 -56.8074 -56.2772 -56.2467
   -34.2286 -34.0965 -34.0718 -34.0274 -34.0120 -33.9309 -33.8909 -33.8327
   -33.8139 -33.7429 -33.7287 -33.7196 -33.7101 -33.6819 -33.6695 -33.6660
   -33.6409 -33.6026 -33.6001 -33.5385 -33.5272 -33.4774 -33.4515 -33.4414
   -33.4279 -33.4175 -33.4007 -33.3755 -33.3580 -33.3557 -33.3484 -33.3363
   -33.3066 -33.3057 -33.2986 -33.2693 -33.2676 -33.1401 -33.1319 -33.0783
   -33.0379 -32.9612 -32.6725 -32.6299 -32.6060 -32.4962 -32.4168 -32.3298
   -24.3096 -21.0883 -18.0811 -17.8711 -17.6538 -17.5343 -17.4674 -17.4358
   -17.2485 -17.2250 -17.1990 -17.0783 -17.0535 -17.0345 -16.9829 -16.9480
   -16.9191 -16.8540 -16.8343 -16.8133 -16.7415 -16.6537 -16.6224 -16.5344
   -16.5026 -16.4916 -16.4758 -16.3019 -16.2788 -16.2570 -16.1277 -16.1156
   -14.8707 -14.8004  -9.7868  -7.5482  -7.5267  -6.0036  -5.4468  -5.3051
    -5.1649  -5.1531  -5.1035  -4.8678  -4.8556  -4.7215  -4.5630  -4.5156
    -4.4695  -4.4385  -4.4082  -4.3494  -4.3162  -4.2791  -4.2171  -4.1894
    -4.1491  -4.1158  -4.0846  -4.0670  -4.0264  -3.9667  -3.9547  -3.9227
    -3.9063  -3.8505  -3.8386  -3.7507  -3.7305  -3.6753  -3.6701  -3.4749
    -3.4479  -3.3826  -3.3343  -3.2761  -3.1587  -3.0999  -3.0626  -2.9351
    -2.8554  -2.8383  -2.7981  -2.7828  -2.7470  -2.6710  -2.6270  -2.6077
    -2.5838  -2.5693  -2.5423  -2.5112  -2.4502  -2.3979  -2.3460  -2.3204
    -2.2592  -2.2411  -2.1891  -2.1009  -2.0565  -2.0270  -1.9869  -1.9012
    -1.8711  -1.8448  -1.7823  -1.7570  -1.7325  -1.7123  -1.6563  -1.6176
    -1.5612  -1.5029  -1.4756  -1.4580  -1.4104  -1.3700  -1.3183  -1.2254
    -1.1994  -1.1936  -1.0484  -0.9904  -0.9699  -0.9019  -0.8815  -0.8621
    -0.7771  -0.5658  -0.4181  -0.2742  -0.2127   0.0124   0.0542   0.0632
     1.6035   1.7300   1.8988   1.9112   2.0268   2.0441   2.1432   2.1788
     2.2405   2.2849   2.3219   2.3363   2.3860   2.4010   2.4149   2.4385
     2.5159   2.5493   2.5863   2.6187   2.6372   2.7614   2.8124   2.8302
     2.8554   2.8974   2.9846   2.9945   3.0018   3.0077   3.0604   3.0976
     3.1750   3.2338   3.2697   3.2756   3.3071   3.3373   3.3837   3.4435
     3.4672   3.5020   3.5223   3.5385   3.5892   3.6379   3.7700   3.8943
     4.0250   4.0524   4.1029   4.1737   4.2282   4.3678   4.6871   4.7759
     4.8274   4.9453   4.9918   5.0359   5.0453   5.1061   5.2690   5.5306
     5.5696   5.6027   5.6522   5.7322   5.7447   5.8267   5.8863   5.9300
     5.9607   6.0024   6.0276   6.0370   6.0567   6.0883   6.3017   6.3165
     6.4785   6.5555   6.7373   6.7715   6.8203   7.0595   7.0769   7.3285
     7.5248   8.0185   8.1368   8.2216   8.3123   8.5258   8.5745   8.8267
     9.0205   9.2656   9.3956   9.4697

          k = 0.0253 0.0560 0.0000 ( 34699 PWs)   bands (ev):

   -57.8086 -57.7911 -57.5015 -57.4554 -57.3730 -57.3537 -57.2636 -57.2459
   -57.1659 -57.1481 -57.1020 -57.0842 -56.8748 -56.8101 -56.2708 -56.2532
   -34.1588 -34.0911 -34.0769 -33.9951 -33.9639 -33.9568 -33.9483 -33.7979
   -33.7674 -33.7574 -33.7440 -33.7080 -33.6983 -33.6854 -33.6694 -33.6665
   -33.5856 -33.5711 -33.5674 -33.5369 -33.5280 -33.5200 -33.4739 -33.4636
   -33.4462 -33.4326 -33.4010 -33.3751 -33.3699 -33.3546 -33.3541 -33.3483
   -33.3333 -33.3194 -33.2972 -33.2953 -33.2607 -33.1391 -33.1283 -33.0799
   -33.0515 -33.0286 -32.6249 -32.6110 -32.6017 -32.4796 -32.4337 -32.4039
   -24.3095 -21.0882 -17.9140 -17.7144 -17.5201 -17.4342 -17.4127 -17.3922
   -17.3039 -17.2892 -17.1774 -17.1161 -17.0774 -17.0256 -17.0011 -16.9822
   -16.8939 -16.8847 -16.8456 -16.8005 -16.7637 -16.7279 -16.6753 -16.5823
   -16.5690 -16.4606 -16.4267 -16.3183 -16.3134 -16.2767 -16.2411 -16.1771
   -14.8887 -14.8509  -9.7866  -7.5512  -7.5263  -6.0018  -5.2157  -5.0706
    -4.9560  -4.9271  -4.8973  -4.7242  -4.6575  -4.6400  -4.5241  -4.5167
    -4.4970  -4.4877  -4.3865  -4.3474  -4.3421  -4.3103  -4.2798  -4.2637
    -4.2190  -4.2046  -4.1843  -4.1491  -4.0815  -4.0667  -4.0558  -4.0008
    -3.9653  -3.9093  -3.8400  -3.8021  -3.7186  -3.6249  -3.5376  -3.4676
    -3.4263  -3.4074  -3.3704  -3.2012  -3.1658  -3.0400  -2.9876  -2.9675
    -2.9421  -2.8716  -2.8006  -2.7610  -2.7073  -2.6665  -2.6295  -2.5770
    -2.5519  -2.5101  -2.4644  -2.4484  -2.4072  -2.3928  -2.3122  -2.2666
    -2.2518  -2.2217  -2.1659  -2.1295  -2.0844  -2.0708  -2.0067  -1.9933
    -1.9410  -1.9186  -1.8662  -1.8297  -1.8137  -1.7715  -1.7174  -1.6863
    -1.6580  -1.5804  -1.5597  -1.4868  -1.4634  -1.4116  -1.3749  -1.3373
    -1.2516  -1.2241  -1.1529  -1.0887  -1.0619  -0.9628  -0.9377  -0.8657
    -0.8144  -0.7286  -0.5942  -0.3979  -0.0364   0.0044   0.0295   0.0526
     1.7434   1.9196   1.9344   2.0572   2.0642   2.0874   2.1732   2.1837
[...]
    -2.6705  -2.6249  -2.6180  -2.6097  -2.5801  -2.5360  -2.4980  -2.4820
    -2.4814  -2.4199  -2.3781  -2.3666  -2.3272  -2.2964  -2.2526  -2.2517
    -2.2266  -2.1405  -2.1355  -2.1338  -2.0073  -1.9705  -1.8179  -1.7891
    -1.7291  -1.6808  -1.4270  -1.3814  -1.3179  -1.3168  -1.1599  -1.1462
    -1.1392  -1.1374  -1.1117  -1.0801  -1.0348  -0.8989  -0.8832  -0.7511
    -0.7412  -0.7247  -0.6584  -0.6577  -0.0575  -0.0575   0.0801   0.0804
     1.9949   2.0099   2.0512   2.0577   2.0804   2.0828   2.0952   2.0988
     2.3639   2.3758   2.3818   2.3959   2.4594   2.4652   2.5305   2.5472
     2.5657   2.5662   2.6265   2.7322   2.8375   2.8566   2.8587   2.8744
     2.8863   2.9637   3.0393   3.1111   3.1196   3.1710   3.2018   3.2650
     3.2898   3.3178   3.3415   3.3700   3.4028   3.4060   3.4490   3.4880
     3.5660   3.5947   3.7007   3.7348   3.7999   3.8216   3.8234   3.8244
     3.9552   3.9602   3.9797   3.9797   4.2944   4.5603   4.6659   4.6664
     4.7231   4.7454   4.7830   4.7901   4.7919   4.8160   5.0845   5.1129
     5.2364   5.2689   5.6279   5.6406   5.8172   5.8317   5.9462   6.0499
     6.1648   6.2149   6.2211   6.2516   6.3447   6.4072   6.4814   6.5369
     6.5384   6.5485   6.7146   6.7154   6.7690   6.7705   7.0219   7.0617
     7.6378   7.6565   7.7949   7.8071   8.0409   8.0869   8.3214   8.3973
     8.5420   8.5993   8.6821   9.1763

          k =-0.0253 0.0280 0.0000 ( 34687 PWs)   bands (ev):

   -57.8150 -57.7847 -57.5049 -57.4522 -57.3792 -57.3475 -57.2701 -57.2395
   -57.1723 -57.1417 -57.1085 -57.0778 -56.8775 -56.8075 -56.2774 -56.2468
   -34.2286 -34.0965 -34.0718 -34.0274 -34.0120 -33.9309 -33.8909 -33.8328
   -33.8140 -33.7430 -33.7287 -33.7197 -33.7101 -33.6820 -33.6696 -33.6660
   -33.6409 -33.6026 -33.6001 -33.5385 -33.5273 -33.4774 -33.4516 -33.4414
   -33.4279 -33.4175 -33.4007 -33.3756 -33.3580 -33.3558 -33.3484 -33.3364
   -33.3067 -33.3057 -33.2987 -33.2694 -33.2677 -33.1402 -33.1320 -33.0784
   -33.0380 -32.9613 -32.6727 -32.6301 -32.6061 -32.4963 -32.4169 -32.3299
   -24.3096 -21.0883 -18.0810 -17.8711 -17.6538 -17.5342 -17.4674 -17.4355
   -17.2486 -17.2253 -17.1990 -17.0783 -17.0537 -17.0345 -16.9834 -16.9479
   -16.9192 -16.8540 -16.8343 -16.8129 -16.7406 -16.6537 -16.6226 -16.5345
   -16.5026 -16.4913 -16.4757 -16.3018 -16.2788 -16.2570 -16.1275 -16.1155
   -14.8704 -14.8001  -9.7868  -7.5483  -7.5267  -6.0036  -5.4467  -5.3051
    -5.1646  -5.1527  -5.1035  -4.8681  -4.8557  -4.7222  -4.5618  -4.5160
    -4.4694  -4.4386  -4.4086  -4.3493  -4.3165  -4.2789  -4.2195  -4.1891
    -4.1494  -4.1163  -4.0848  -4.0670  -4.0255  -3.9668  -3.9543  -3.9235
    -3.9058  -3.8504  -3.8401  -3.7505  -3.7306  -3.6755  -3.6691  -3.4734
    -3.4465  -3.3803  -3.3325  -3.2771  -3.1581  -3.0999  -3.0626  -2.9361
    -2.8565  -2.8348  -2.7990  -2.7831  -2.7478  -2.6708  -2.6270  -2.6050
    -2.5868  -2.5684  -2.5422  -2.5116  -2.4520  -2.3972  -2.3440  -2.3216
    -2.2573  -2.2409  -2.1903  -2.1034  -2.0567  -2.0265  -1.9865  -1.9065
    -1.8686  -1.8468  -1.7855  -1.7556  -1.7335  -1.7109  -1.6562  -1.6178
    -1.5579  -1.5002  -1.4756  -1.4560  -1.4117  -1.3701  -1.3201  -1.2256
    -1.2022  -1.1946  -1.0486  -0.9878  -0.9668  -0.9043  -0.8812  -0.8591
    -0.7776  -0.5660  -0.4180  -0.2742  -0.2125   0.0126   0.0544   0.0634
     1.6035   1.7300   1.8987   1.9115   2.0270   2.0458   2.1438   2.1807
     2.2431   2.2839   2.3205   2.3322   2.3869   2.4013   2.4147   2.4403
     2.5154   2.5498   2.5862   2.6178   2.6374   2.7603   2.8094   2.8292
     2.8579   2.8974   2.9838   2.9936   3.0012   3.0062   3.0613   3.0958
     3.1767   3.2363   3.2700   3.2760   3.3069   3.3370   3.3844   3.4399
     3.4688   3.5040   3.5222   3.5386   3.5879   3.6379   3.7702   3.8943
     4.0251   4.0522   4.1029   4.1736   4.2277   4.3677   4.6871   4.7728
     4.8294   4.9448   4.9906   5.0351   5.0456   5.1054   5.2681   5.5303
     5.5684   5.6032   5.6525   5.7319   5.7447   5.8253   5.8921   5.9320
     5.9595   6.0017   6.0265   6.0371   6.0570   6.0879   6.3017   6.3162
     6.4800   6.5557   6.7371   6.7713   6.8202   7.0613   7.0806   7.3259
     7.5246   8.0185   8.1407   8.2166   8.3116   8.5257   8.5721   8.8276
     9.0214   9.2636   9.3988   9.4674

          k =-0.0253 0.0560 0.0000 ( 34699 PWs)   bands (ev):

   -57.8086 -57.7912 -57.5016 -57.4555 -57.3730 -57.3537 -57.2636 -57.2460
   -57.1660 -57.1481 -57.1020 -57.0843 -56.8749 -56.8102 -56.2709 -56.2533
   -34.1588 -34.0911 -34.0769 -33.9951 -33.9639 -33.9568 -33.9483 -33.7980
   -33.7674 -33.7575 -33.7440 -33.7081 -33.6983 -33.6855 -33.6694 -33.6666
   -33.5854 -33.5711 -33.5678 -33.5369 -33.5280 -33.5200 -33.4740 -33.4636
   -33.4462 -33.4327 -33.4010 -33.3751 -33.3700 -33.3546 -33.3541 -33.3483
   -33.3334 -33.3194 -33.2972 -33.2954 -33.2608 -33.1392 -33.1284 -33.0800
   -33.0516 -33.0287 -32.6250 -32.6112 -32.6019 -32.4797 -32.4339 -32.4041
   -24.3095 -21.0882 -17.9139 -17.7144 -17.5200 -17.4344 -17.4127 -17.3922
   -17.3034 -17.2892 -17.1774 -17.1162 -17.0779 -17.0255 -17.0011 -16.9839
   -16.8939 -16.8845 -16.8446 -16.7984 -16.7642 -16.7279 -16.6759 -16.5821
   -16.5691 -16.4606 -16.4266 -16.3182 -16.3133 -16.2766 -16.2411 -16.1770
   -14.8884 -14.8506  -9.7866  -7.5512  -7.5263  -6.0019  -5.2155  -5.0706
    -4.9550  -4.9267  -4.8972  -4.7238  -4.6577  -4.6410  -4.5247  -4.5191
    -4.4957  -4.4873  -4.3885  -4.3484  -4.3418  -4.3101  -4.2778  -4.2634
    -4.2192  -4.2053  -4.1836  -4.1496  -4.0813  -4.0683  -4.0561  -4.0017
    -3.9658  -3.9093  -3.8403  -3.8013  -3.7185  -3.6236  -3.5389  -3.4639
    -3.4251  -3.4053  -3.3680  -3.2022  -3.1677  -3.0392  -2.9874  -2.9667
    -2.9404  -2.8723  -2.8000  -2.7612  -2.7079  -2.6666  -2.6303  -2.5761
    -2.5517  -2.5096  -2.4647  -2.4491  -2.4068  -2.3933  -2.3121  -2.2676
    -2.2518  -2.2232  -2.1664  -2.1308  -2.0838  -2.0731  -2.0050  -1.9926
    -1.9437  -1.9211  -1.8696  -1.8305  -1.8112  -1.7714  -1.7151  -1.6881
    -1.6553  -1.5795  -1.5594  -1.4835  -1.4624  -1.4150  -1.3757  -1.3358
    -1.2520  -1.2236  -1.1515  -1.0883  -1.0617  -0.9627  -0.9373  -0.8668
    -0.8147  -0.7279  -0.5940  -0.3981  -0.0363   0.0046   0.0297   0.0528
     1.7433   1.9203   1.9343   2.0572   2.0638   2.0896   2.1756   2.1843
     2.2585   2.2764   2.3002   2.3145   2.3573   2.4015   2.4317   2.5155
     2.5666   2.5859   2.6535   2.6693   2.6869   2.7316   2.7901   2.8084
     2.8161   2.8355   2.8811   2.8924   2.9978   3.0697   3.1307   3.1508
     3.2078   3.2190   3.2511   3.2825   3.3322   3.3752   3.4289   3.4482
     3.5229   3.5549   3.6431   3.6715   3.7052   3.7398   3.7609   3.8276
     3.9439   3.9823   4.0185   4.1408   4.2130   4.3768   4.7817   4.8536
     4.9968   5.0311   5.1059   5.1232   5.1470   5.2244   5.3336   5.4288
     5.4469   5.5043   5.6027   5.6338   5.7242   5.7366   5.8002   5.8306
     5.8849   5.9125   5.9576   6.0199   6.0550   6.2250   6.2538   6.3573
     6.4075   6.4448   6.6544   6.6607   6.7448   6.9084   7.0375   7.2921
     7.3567   7.7094   7.8313   8.0810   8.3631   8.5578   8.6289   8.8988
     9.0256   9.0588   9.2832   9.3869

          k =-0.0506 0.0280 0.0000 ( 34685 PWs)   bands (ev):

   -57.8150 -57.7847 -57.5049 -57.4522 -57.3792 -57.3475 -57.2700 -57.2395
   -57.1724 -57.1417 -57.1085 -57.0778 -56.8775 -56.8075 -56.2774 -56.2468
   -34.2293 -34.0965 -34.0718 -34.0277 -34.0106 -33.9309 -33.8909 -33.8341
   -33.8140 -33.7457 -33.7287 -33.7194 -33.7092 -33.6836 -33.6765 -33.6660
   -33.6417 -33.5991 -33.5866 -33.5277 -33.5264 -33.4777 -33.4514 -33.4390
   -33.4279 -33.4177 -33.4037 -33.3821 -33.3673 -33.3551 -33.3469 -33.3364
   -33.3067 -33.3059 -33.2987 -33.2693 -33.2676 -33.1422 -33.1321 -33.0786
   -33.0380 -32.9613 -32.6725 -32.6319 -32.6052 -32.4963 -32.4169 -32.3299
   -24.3095 -21.0882 -18.0223 -17.7725 -17.5607 -17.4710 -17.4660 -17.3928
   -17.3349 -17.2501 -17.2342 -17.1034 -17.0842 -17.0562 -17.0526 -16.9944
   -16.9758 -16.9607 -16.8643 -16.7538 -16.7113 -16.6638 -16.5800 -16.5632
   -16.5247 -16.4842 -16.4551 -16.3007 -16.2674 -16.2580 -16.1274 -16.1164
   -14.8685 -14.8001  -9.7853  -7.5486  -7.5264  -6.0027  -5.4302  -5.0115
    -4.9376  -4.9251  -4.8558  -4.8323  -4.8122  -4.7718  -4.6355  -4.5725
    -4.5563  -4.5025  -4.4449  -4.3524  -4.3053  -4.2200  -4.1684  -4.1492
    -4.1297  -4.1205  -4.0481  -4.0042  -3.9717  -3.9433  -3.9027  -3.8779
    -3.8561  -3.8229  -3.7759  -3.7175  -3.6996  -3.5818  -3.4463  -3.4129
    -3.3861  -3.3300  -3.2992  -3.2496  -3.1808  -3.0971  -3.0543  -2.9990
    -2.9389  -2.9174  -2.8685  -2.8599  -2.8019  -2.7530  -2.7321  -2.6819
    -2.6419  -2.6141  -2.5822  -2.5338  -2.4961  -2.4734  -2.4294  -2.4002
    -2.3367  -2.3063  -2.2266  -2.1987  -2.1308  -2.1000  -2.0867  -2.0427
    -1.9927  -1.9284  -1.9000  -1.8687  -1.8414  -1.7722  -1.6867  -1.6319
    -1.5963  -1.5650  -1.4917  -1.4633  -1.4229  -1.4022  -1.3164  -1.2629
    -1.1797  -1.1403  -1.0298  -1.0153  -0.9473  -0.9195  -0.8850  -0.8506
    -0.8118  -0.6465  -0.4491  -0.3947  -0.1994  -0.0166   0.0141   0.0277
     1.5879   1.7941   1.9278   1.9442   1.9645   2.0396   2.0739   2.1519
     2.2479   2.2630   2.3049   2.3650   2.4144   2.4562   2.4577   2.5257
     2.5414   2.5845   2.6126   2.6622   2.7562   2.8091   2.8321   2.8546
     2.8814   2.9291   2.9561   3.0164   3.0254   3.0712   3.1478   3.1722
     3.2365   3.2695   3.3052   3.3227   3.3850   3.4111   3.4478   3.4851
     3.5017   3.5359   3.5492   3.6052   3.6456   3.6922   3.7438   3.8286
     3.9327   4.0342   4.1458   4.1524   4.2870   4.3521   4.5318   4.6389
     4.6622   4.6880   4.8540   4.9005   5.0005   5.3163   5.3457   5.4762
     5.5173   5.5814   5.6605   5.7149   5.7404   5.7571   5.8871   5.9331
     5.9851   6.0275   6.2486   6.2754   6.3060   6.3769   6.4374   6.5167
     6.5463   6.6149   6.6911   6.7315   6.8305   6.9549   7.0325   7.2831
     7.4203   7.6866   7.8089   8.0846   8.3085   8.3994   8.5216   8.9242
     9.0759   9.1598   9.3596   9.4593

          k =-0.0506 0.0560 0.0000 ( 34596 PWs)   bands (ev):

   -57.8086 -57.7912 -57.5016 -57.4555 -57.3730 -57.3537 -57.2636 -57.2459
   -57.1660 -57.1481 -57.1021 -57.0843 -56.8749 -56.8102 -56.2709 -56.2533
   -34.1593 -34.0911 -34.0768 -33.9939 -33.9641 -33.9570 -33.9479 -33.7980
   -33.7680 -33.7580 -33.7440 -33.7069 -33.6983 -33.6860 -33.6719 -33.6687
   -33.5826 -33.5722 -33.5679 -33.5302 -33.5275 -33.5098 -33.4766 -33.4573
   -33.4461 -33.4326 -33.4012 -33.3752 -33.3736 -33.3620 -33.3541 -33.3503
   -33.3336 -33.3207 -33.2972 -33.2952 -33.2606 -33.1404 -33.1285 -33.0806
   -33.0515 -33.0286 -32.6262 -32.6107 -32.6017 -32.4797 -32.4338 -32.4040
   -24.3095 -21.0880 -17.8654 -17.6213 -17.4458 -17.4235 -17.4058 -17.3337
   -17.2950 -17.2621 -17.1899 -17.1576 -17.0857 -17.0664 -17.0003 -16.9796
   -16.9773 -16.9079 -16.8978 -16.8315 -16.7933 -16.7666 -16.7006 -16.6549
   -16.5511 -16.4501 -16.4076 -16.3087 -16.3076 -16.2793 -16.2428 -16.1766
   -14.8872 -14.8510  -9.7850  -7.5513  -7.5259  -6.0011  -5.2075  -4.7769
    -4.7255  -4.7152  -4.6774  -4.6414  -4.6309  -4.5942  -4.4890  -4.4711
    -4.4461  -4.4308  -4.3393  -4.2866  -4.2703  -4.2644  -4.2219  -4.2017
    -4.1773  -4.1647  -4.1510  -4.1240  -4.0712  -4.0342  -4.0230  -3.9929
    -3.9378  -3.8784  -3.8130  -3.7774  -3.6749  -3.6459  -3.5028  -3.4765
    -3.4586  -3.3909  -3.3727  -3.1983  -3.1130  -3.0704  -3.0233  -2.9798
    -2.9603  -2.9065  -2.8882  -2.8502  -2.8078  -2.7609  -2.7067  -2.7023
    -2.6312  -2.6135  -2.5855  -2.5090  -2.4802  -2.4616  -2.4451  -2.4225
    -2.3933  -2.3508  -2.2806  -2.2683  -2.2435  -2.2182  -2.1713  -2.1583
    -2.0859  -2.0461  -2.0153  -1.9742  -1.9287  -1.8474  -1.7792  -1.7632
    -1.6954  -1.5953  -1.5217  -1.4771  -1.4426  -1.3646  -1.3283  -1.2192
    -1.1674  -1.1293  -1.0853  -1.0236  -0.9802  -0.9158  -0.9029  -0.8242
    -0.7923  -0.7776  -0.6475  -0.4581  -0.0480  -0.0108   0.0025   0.0586
     1.7463   1.9441   1.9633   2.0262   2.0816   2.1208   2.1312   2.1846
     2.2310   2.2779   2.3946   2.4305   2.4392   2.4652   2.4836   2.5096
     2.6044   2.6205   2.6529   2.6752   2.7273   2.7962   2.8144   2.8535
     2.9028   2.9142   2.9539   2.9855   3.0358   3.0750   3.1993   3.2274
     3.2481   3.2754   3.3253   3.3367   3.3808   3.3967   3.4188   3.4770
     3.5551   3.6011   3.6170   3.6990   3.7490   3.7780   3.7884   3.8045
     3.8460   3.9784   4.0307   4.1571   4.2156   4.4613   4.6558   4.6850
     4.7578   4.7608   4.9040   5.0100   5.0816   5.1485   5.2187   5.2445
     5.3148   5.4734   5.5684   5.6394   5.6903   5.7470   5.8380   5.9784
     6.0190   6.1237   6.1720   6.2155   6.2636   6.3113   6.4722   6.4892
     6.5542   6.5982   6.6393   6.6888   6.8159   6.8553   6.9574   7.3012
     7.3343   7.7188   7.7577   8.0174   8.0915   8.1739   8.5727   8.6642
     8.8349   8.9096   9.1406   9.3642

     the Fermi energy is     0.8724 ev

!    total energy              =   -3044.95833915 Ry
     Harris-Foulkes estimate   =   -3044.95833932 Ry
     estimated scf accuracy    <       0.00000013 Ry

     The total energy is the sum of the following terms:

     one-electron contribution =  -40855.91951333 Ry
     hartree contribution      =   20500.36454108 Ry
     xc contribution           =    -557.17791923 Ry
     ewald contribution        =   17867.77475750 Ry
     smearing contrib. (-TS)   =      -0.00020518 Ry

     total magnetization       =     0.00 Bohr mag/cell
     absolute magnetization    =     0.00 Bohr mag/cell

     convergence has been achieved in  10 iterations

     Forces acting on atoms (Ry/au):


     negative rho (up, down):  1.158E-02 1.158E-02
     atom    1 type  1   force =    -0.00008524    0.00030646   -0.13596423
     atom    2 type  2   force =     0.00010291   -0.00008149    0.07514541
     atom    3 type  1   force =     0.00126482    0.00109073   -0.05982404
     atom    4 type  2   force =     0.00661193   -0.00006897    0.00967370
     atom    5 type  1   force =    -0.00132389   -0.00013780    0.00004107
     atom    6 type  2   force =    -0.00186859   -0.00356430   -0.00904942
     atom    7 type  1   force =     0.01131552    0.00822137   -0.01676583
     atom    8 type  2   force =     0.00040091   -0.00012491    0.00073957
     atom    9 type  1   force =     0.00012850    0.00035373   -0.13603425
     atom   10 type  2   force =     0.00016641   -0.00003216    0.07508937
     atom   11 type  1   force =     0.00126093   -0.00086260   -0.05995428
     atom   12 type  2   force =     0.00604351   -0.00011049    0.00853836
     atom   13 type  1   force =     0.00014852   -0.00015321   -0.00032460
     atom   14 type  2   force =    -0.00205046    0.00298204   -0.00911778
     atom   15 type  1   force =     0.01148915   -0.00803390   -0.01703627
     atom   16 type  2   force =     0.00705891    0.00009108    0.01085000
     atom   17 type  2   force =    -0.00002595   -0.00005623    0.07998223
     atom   18 type  1   force =    -0.00006292    0.00022834    0.11912221
     atom   19 type  2   force =     0.00038925    0.00019025   -0.06814476
     atom   20 type  2   force =    -0.06269153    0.00005072   -0.03210775
     atom   21 type  2   force =     0.06273985    0.00015145   -0.03257780
     atom   22 type  1   force =    -0.00049136   -0.00012375    0.06430787
     atom   23 type  2   force =     0.00015589    0.00062340   -0.00268069
     atom   24 type  2   force =     0.00049480    0.00004148   -0.02243893
     atom   25 type  2   force =    -0.00645398   -0.00025333    0.00823036
     atom   26 type  1   force =    -0.00012053   -0.00005387    0.00251444
     atom   27 type  2   force =     0.00254705   -0.00144877   -0.00236728
     atom   28 type  2   force =    -0.00005502   -0.00001564   -0.00149432
     atom   29 type  2   force =     0.00012705   -0.00005266   -0.00054202
     atom   30 type  1   force =     0.00576179    0.00035030   -0.00083855
     atom   31 type  2   force =    -0.00205764    0.00156592    0.00122034
     atom   32 type  2   force =     0.00161423   -0.00009791    0.00192612
     atom   33 type  2   force =    -0.00000037    0.00015240    0.08005115
     atom   34 type  1   force =    -0.00007866    0.00023466    0.11913177
     atom   35 type  2   force =     0.00035663    0.00032580   -0.06809291
     atom   36 type  2   force =    -0.06268607    0.00009702   -0.03231886
     atom   37 type  2   force =     0.06285196    0.00017317   -0.03207325
     atom   38 type  1   force =    -0.00069694    0.00001074    0.06414053
     atom   39 type  2   force =     0.00019317   -0.00082287   -0.00266489
     atom   40 type  2   force =     0.00060338   -0.00227598   -0.02259358
     atom   41 type  2   force =    -0.00619789   -0.00030813    0.00763173
     atom   42 type  1   force =    -0.00010425   -0.00008926    0.00252164
     atom   43 type  2   force =     0.00260048    0.00143711   -0.00239743
     atom   44 type  2   force =     0.00034796   -0.00012860   -0.00072637
     atom   45 type  2   force =    -0.00021422   -0.00006175   -0.00096232
     atom   46 type  1   force =    -0.01938701    0.00042626   -0.00524133
     atom   47 type  2   force =    -0.00206363   -0.00140970    0.00123819
     atom   48 type  2   force =    -0.00105765   -0.00044656   -0.02868627
     atom   49 type  2   force =    -0.04635557    0.00063996    0.18209642
     atom   50 type  3   force =    -0.02364034    0.00121802   -0.00772798
     atom   51 type  3   force =     0.05299418   -0.00014757   -0.10344450

     Total force =     0.433209     Total SCF correction =     0.000965
 !ASE

     Writing output data file calc.save
 
     init_run     :     55.16s CPU     69.60s WALL (       1 calls)
     electrons    :   2132.34s CPU   2722.69s WALL (       1 calls)
     forces       :     40.30s CPU     42.38s WALL (       1 calls)

     Called by init_run:
     wfcinit      :     46.99s CPU     60.69s WALL (       1 calls)
     potinit      :      1.36s CPU      1.66s WALL (       1 calls)

     Called by electrons:
     c_bands      :   1851.66s CPU   2372.78s WALL (      10 calls)
     sum_band     :    235.80s CPU    298.81s WALL (      10 calls)
     v_of_rho     :     10.75s CPU     13.55s WALL (      11 calls)
     newd         :     37.77s CPU     41.25s WALL (      11 calls)
     mix_rho      :      0.48s CPU      0.65s WALL (      10 calls)
     vdW_energy   :      2.04s CPU      2.52s WALL (      12 calls)
     vdW_ffts     :      2.75s CPU      3.79s WALL (      24 calls)
     vdW_v        :      1.17s CPU      1.40s WALL (      12 calls)

     Called by c_bands:
     init_us_2    :      5.88s CPU      6.46s WALL (     880 calls)
     cegterg      :   1814.47s CPU   2333.23s WALL (     400 calls)

     Called by *egterg:
     h_psi        :    736.09s CPU   1161.43s WALL (    1975 calls)
     s_psi        :     92.98s CPU     97.67s WALL (    1975 calls)
     g_psi        :      5.85s CPU      5.96s WALL (    1535 calls)
     cdiaghg      :    584.07s CPU    596.17s WALL (    1935 calls)

     Called by h_psi:
     add_vuspsi   :     93.91s CPU     98.67s WALL (    1975 calls)

     General routines
     calbec       :    144.17s CPU    147.51s WALL (    2415 calls)
     fft          :      6.20s CPU      8.23s WALL (     948 calls)
     ffts         :      0.05s CPU      0.09s WALL (      42 calls)
     fftw         :    484.04s CPU    946.33s WALL (  721006 calls)
     interpolate  :      0.37s CPU      0.62s WALL (      42 calls)
     davcio       :      0.14s CPU      2.55s WALL (      40 calls)
 
     Parallel routines
     fft_scatter  :    265.99s CPU    488.07s WALL (  721996 calls)
 
     PWSCF        : 37m 9.17s CPU    47m19.36s WALL

 
   This run was terminated on:  11:19:27  10Mar2018            

=------------------------------------------------------------------------------=
   JOB DONE.
=------------------------------------------------------------------------------=
