  python dir          : /home/vossj/suncat/lib/python2.7/site-packages/espresso
  espresso dir        : /home/vossj/suncat/esdld/espresso-dynpy-beef/bin
  pseudo dir          : /home/alatimer/bin/psp/esp_psp_w_gbrvRu/
  ase-espresso py git : ffa2778-git



     Program PWSCF v.5.1rc2 (svn rev. ) starts on 10Feb2018 at 21:38:21 

     This program is part of the open-source Quantum ESPRESSO suite
     for quantum simulation of materials; please cite
         "P. Giannozzi et al., J. Phys.:Condens. Matter 21 395502 (2009);
          URL http://www.quantum-espresso.org", 
     in publications or presentations arising from this work. More details at
     http://www.quantum-espresso.org/quote

     Parallel version (MPI), running on    16 processors
     R & G space division:  proc/nbgrp/npool/nimage =      16
     Reading input from pw.inp
     Message from routine read_cards :
     DEPRECATED: no units specified in CELL_PARAMETERS card

     Current dimensions of program PWSCF are:
     Max number of different atomic species (ntypx) = 10
     Max number of k-points (npk) =  40000
     Max angular momentum in pseudopotentials (lmaxx) =  3

     **************************************************************************
     Initializing libbeef V0.1.1 with the BEEF-vdW functional.
     Citation: Wellendorff et al., PRB 85, 235149 (2012).
     **************************************************************************


     IMPORTANT: XC functional enforced from input :
     Exchange-correlation      = BEEF ( 1  4 27 13 2)
     Any further DFT definition will be discarded
     Please, verify this is what you really want


     Subspace diagonalization in iterative solution of the eigenvalue problem:
     a serial algorithm will be used

 
     Parallelization info
     --------------------
     sticks:   dense  smooth     PW     G-vecs:    dense   smooth      PW
     Min         281     112     31                68535    17318    2565
     Max         282     113     32                68545    17369    2582
     Sum        4501    1795    503              1096637   277353   41113
 
     Generating pointlists ...
     new r_m :   0.4125 (alat units)  0.7795 (a.u.) for type    1
     new r_m :   0.3933 (alat units)  0.7433 (a.u.) for type    2
     new r_m :   0.3933 (alat units)  0.7433 (a.u.) for type    3


     bravais-lattice index     =            0
     lattice parameter (alat)  =       1.8897  a.u.
     unit-cell volume          =    7990.9933 (a.u.)^3
     number of atoms/cell      =           50
     number of atomic types    =            3
     number of electrons       =       391.00
     number of Kohn-Sham states=          295
     kinetic-energy cutoff     =      40.4243  Ry
     charge density cutoff     =     404.2426  Ry
     convergence threshold     =      7.3E-07
     mixing beta               =       0.1000
     number of iterations used =           10  plain     mixing
     Exchange-correlation      = BEEF ( 1  4 27 13 2)
     nstep                     =           50


     celldm(1)=   1.889726  celldm(2)=   0.000000  celldm(3)=   0.000000
     celldm(4)=   0.000000  celldm(5)=   0.000000  celldm(6)=   0.000000

     crystal axes: (cart. coord. in units of alat)
               a(1) = (   6.590708   0.000000   0.000000 )  
               a(2) = (   0.000000   5.950229   0.000000 )  
               a(3) = (   0.000000   0.000000  30.195235 )  

     reciprocal axes: (cart. coord. in units 2 pi/alat)
               b(1) = (  0.151729  0.000000  0.000000 )  
               b(2) = (  0.000000  0.168061  0.000000 )  
               b(3) = (  0.000000  0.000000  0.033118 )  


     PseudoPot. # 1 for Ti read from file:
     /home/alatimer/bin/psp/esp_psp_w_gbrvRu/Ti.UPF
     MD5 check sum: 8e4df49b7f0d34bbd5052bf3f5ea0213
     Pseudo is Ultrasoft, Zval = 12.0
     Generated by new atomic code, or converted to UPF format
     Using radial grid of  851 points,  6 beta functions with: 
                l(1) =   0
                l(2) =   0
                l(3) =   1
                l(4) =   1
                l(5) =   2
                l(6) =   2
     Q(r) pseudized with  8 coefficients,  rinner =    1.000   1.000   1.000
                                                       1.000   1.000

     PseudoPot. # 2 for  O read from file:
     /home/alatimer/bin/psp/esp_psp_w_gbrvRu/O.UPF
     MD5 check sum: e057bbcf3229fb5d8c36c0c92f9568b4
     Pseudo is Ultrasoft + core correction, Zval =  6.0
     Generated using "atomic" code by A. Dal Corso  v.5.0.2 svn rev. 9415
     Using radial grid of 1095 points,  4 beta functions with: 
                l(1) =   0
                l(2) =   0
                l(3) =   1
                l(4) =   1
     Q(r) pseudized with 0 coefficients 


     PseudoPot. # 3 for  H read from file:
     /home/alatimer/bin/psp/esp_psp_w_gbrvRu/H.UPF
     MD5 check sum: bd57da0722753ddfd9833a65b40bb853
     Pseudo is Ultrasoft, Zval =  1.0
     Generated using "atomic" code by A. Dal Corso  v.5.0.2 svn rev. 9415
     Using radial grid of  929 points,  2 beta functions with: 
                l(1) =   0
                l(2) =   0
     Q(r) pseudized with 0 coefficients 


     vdW kernel table read from file vdW_kernel_table
     MD5 check sum: 095c7af220d748ca6e76c0b4c6cfb241

     atomic species   valence    mass     pseudopotential
        Ti1           12.00    47.88000     Ti( 1.00)
        O1             6.00    15.99940      O( 1.00)
        H1             1.00     1.00794      H( 1.00)

     Starting magnetic structure 
     atomic species   magnetization
        Ti1          0.250
        O1           0.500
        H1           0.000

      2 Sym. Ops. (no inversion) found ( 1 have fractional translation)



   Cartesian axes

     site n.     atom                  positions (alat units)
         1           Ti1 tau(   1) = (   1.6476770   0.7437786   2.6545865  )
         2           O1  tau(   2) = (   1.6476770   2.2313359   3.9361215  )
         3           Ti1 tau(   3) = (   1.6476770   2.2313359   5.9499405  )
         4           O1  tau(   4) = (   0.3661420   0.7437786   5.9499405  )
         5           Ti1 tau(   5) = (   1.6423058   0.7993178   9.2289010  )
         6           O1  tau(   6) = (   1.6406404   2.2313359  10.4535548  )
         7           Ti1 tau(   7) = (   1.6373334   2.2313359  13.0586656  )
         8           O1  tau(   8) = (   0.3716334   0.7231912  12.7369480  )
         9           Ti1 tau(   9) = (   1.6476770   3.7188931   2.6545865  )
        10           O1  tau(  10) = (   1.6476770   5.2064503   3.9361215  )
        11           Ti1 tau(  11) = (   1.6476770   5.2064503   5.9499405  )
        12           O1  tau(  12) = (   0.3661420   3.7188931   5.9499405  )
        13           Ti1 tau(  13) = (   1.6423059   3.6633529   9.2289023  )
        14           O1  tau(  14) = (   1.6396028   5.2064504  10.5374954  )
        15           Ti1 tau(  15) = (   1.6366369   5.2064504  12.3426698  )
        16           O1  tau(  16) = (   0.3716333   3.7394800  12.7369475  )
        17           O1  tau(  17) = (   1.6476770   2.2313359   1.3730516  )
        18           Ti1 tau(  18) = (   4.9430310   2.2313359   2.6545865  )
        19           O1  tau(  19) = (   4.9430310   2.2313359   4.6684056  )
        20           O1  tau(  20) = (   6.2245660   0.7437786   2.6545865  )
        21           O1  tau(  21) = (   3.6614961   0.7437786   2.6545865  )
        22           Ti1 tau(  22) = (   4.9430310   0.7437786   5.9499405  )
        23           O1  tau(  23) = (   1.6444126   2.2313359   7.9291264  )
        24           O1  tau(  24) = (   4.9430310   2.2313359   7.2314755  )
        25           O1  tau(  25) = (   2.9292120   0.7437786   5.9499405  )
        26           Ti1 tau(  26) = (   4.9374203   2.2313360   9.4425711  )
        27           O1  tau(  27) = (   4.9384755   2.2313359  11.2756104  )
        28           O1  tau(  28) = (   6.2333856   0.7395591   9.2701299  )
        29           O1  tau(  29) = (   3.6424277   0.7403199   9.2676498  )
        30           Ti1 tau(  30) = (   4.9388558   0.7382018  12.7898683  )
        31           O1  tau(  31) = (   4.8884434   2.2313358  13.8602379  )
        32           O1  tau(  32) = (   2.8718067   0.7224686  12.6922084  )
        33           O1  tau(  33) = (   1.6476770   5.2064503   1.3730516  )
        34           Ti1 tau(  34) = (   4.9430310   5.2064503   2.6545865  )
        35           O1  tau(  35) = (   4.9430310   5.2064503   4.6684056  )
        36           O1  tau(  36) = (   6.2245660   3.7188931   2.6545865  )
        37           O1  tau(  37) = (   3.6614961   3.7188931   2.6545865  )
        38           Ti1 tau(  38) = (   4.9430310   3.7188931   5.9499405  )
        39           O1  tau(  39) = (   1.6444418   5.2064506   7.9393866  )
        40           O1  tau(  40) = (   4.9430310   5.2064503   7.2314755  )
        41           O1  tau(  41) = (   2.9292120   3.7188931   5.9499405  )
        42           Ti1 tau(  42) = (   4.9387790   5.2064503   9.4241858  )
        43           O1  tau(  43) = (   4.9379278   5.2064504  11.2756977  )
        44           O1  tau(  44) = (   6.2333855   3.7231127   9.2701299  )
        45           O1  tau(  45) = (   3.6424278   3.7223520   9.2676499  )
        46           Ti1 tau(  46) = (   4.9388558   3.7244696  12.7898683  )
        47           O1  tau(  47) = (   4.8902929   5.2064502  13.8618696  )
        48           O1  tau(  48) = (   2.8718066   3.7402036  12.6922086  )
        49           O1  tau(  49) = (   1.7618258   2.2313358  14.8794317  )
        50           H1  tau(  50) = (   2.6007197   2.2313366  15.3328018  )

     number of k points=    32  Fermi-Dirac smearing, width (Ry)=  0.0073
                       cart. coord. in units 2pi/alat
        k(    1) = (   0.0000000   0.0000000   0.0000000), wk =   0.0277778
        k(    2) = (   0.0000000   0.0280101   0.0000000), wk =   0.0555556
        k(    3) = (   0.0000000   0.0560203   0.0000000), wk =   0.0555556
        k(    4) = (   0.0000000  -0.0840304   0.0000000), wk =   0.0277778
        k(    5) = (   0.0252881   0.0000000   0.0000000), wk =   0.0555556
        k(    6) = (   0.0252881   0.0280101   0.0000000), wk =   0.1111111
        k(    7) = (   0.0252881   0.0560203   0.0000000), wk =   0.1111111
        k(    8) = (   0.0252881  -0.0840304   0.0000000), wk =   0.0555556
        k(    9) = (   0.0505763   0.0000000   0.0000000), wk =   0.0555556
        k(   10) = (   0.0505763   0.0280101   0.0000000), wk =   0.1111111
        k(   11) = (   0.0505763   0.0560203   0.0000000), wk =   0.1111111
        k(   12) = (   0.0505763  -0.0840304   0.0000000), wk =   0.0555556
        k(   13) = (  -0.0758644   0.0000000   0.0000000), wk =   0.0277778
        k(   14) = (  -0.0758644   0.0280101   0.0000000), wk =   0.0555556
        k(   15) = (  -0.0758644   0.0560203   0.0000000), wk =   0.0555556
        k(   16) = (  -0.0758644  -0.0840304   0.0000000), wk =   0.0277778
        k(   17) = (   0.0000000   0.0000000   0.0000000), wk =   0.0277778
        k(   18) = (   0.0000000   0.0280101   0.0000000), wk =   0.0555556
        k(   19) = (   0.0000000   0.0560203   0.0000000), wk =   0.0555556
        k(   20) = (   0.0000000  -0.0840304   0.0000000), wk =   0.0277778
        k(   21) = (   0.0252881   0.0000000   0.0000000), wk =   0.0555556
        k(   22) = (   0.0252881   0.0280101   0.0000000), wk =   0.1111111
        k(   23) = (   0.0252881   0.0560203   0.0000000), wk =   0.1111111
        k(   24) = (   0.0252881  -0.0840304   0.0000000), wk =   0.0555556
        k(   25) = (   0.0505763   0.0000000   0.0000000), wk =   0.0555556
        k(   26) = (   0.0505763   0.0280101   0.0000000), wk =   0.1111111
        k(   27) = (   0.0505763   0.0560203   0.0000000), wk =   0.1111111
        k(   28) = (   0.0505763  -0.0840304   0.0000000), wk =   0.0555556
        k(   29) = (  -0.0758644   0.0000000   0.0000000), wk =   0.0277778
        k(   30) = (  -0.0758644   0.0280101   0.0000000), wk =   0.0555556
        k(   31) = (  -0.0758644   0.0560203   0.0000000), wk =   0.0555556
        k(   32) = (  -0.0758644  -0.0840304   0.0000000), wk =   0.0277778

     Dense  grid:  1096637 G-vectors     FFT dimensions: (  80,  72, 375)

     Smooth grid:   277353 G-vectors     FFT dimensions: (  54,  45, 240)

     Largest allocated arrays     est. size (Mb)     dimensions
        Kohn-Sham Wavefunctions         9.81 Mb     (    2180,  295)
        NL pseudopotentials            18.43 Mb     (    2180,  554)
        Each V/rho on FFT grid          4.22 Mb     (  138240,   2)
        Each G-vector array             0.52 Mb     (   68538)
        G-vector shells                 0.25 Mb     (   33046)
     Largest temporary arrays     est. size (Mb)     dimensions
        Auxiliary wavefunctions        39.25 Mb     (    2180, 1180)
        Each subspace H/S matrix       21.25 Mb     (    1180, 1180)
        Each <psi_i|beta_j> matrix      2.49 Mb     (     554,  295)
        Arrays for rho mixing          21.09 Mb     (  138240,   10)

     Check: negative/imaginary core charge=   -0.000049    0.000000

     The initial density is read from file :
     ./calc.save/charge-density.dat


     negative rho (up, down):  1.350E-02 1.350E-02


     ************************************************************************
     *
     * You are using vdW-DF for exchange-correlation in this calculation.
     * Please cite the following three references that made this development
     * possible:
     *
     *   M. Dion, H. Rydberg, E. Schroder, D. C. Langreth, and
     *   B. I. Lundqvist, Phys. Rev. Lett. 92, 246401 (2004).
     *
     *   T. Thonhauser, V. R. Cooper, S. Li, A. Puzder, P. Hyldgaard, and
     *   D. C. Langreth, Phys. Rev. B 76, 125112 (2007).
     *
     *   G. Roman-Perez and J. M. Soler, Phys. Rev. Lett. 103, 096102 (2009).
     *
     *
     * If you are using vdW-DF2, please also cite:
     *
     *   K. Lee, E. D. Murray, L. Kong, B. I. Lundqvist, and
     *   D. C. Langreth, Phys. Rev. B 82, 081101(R) (2010).
     *
     *
     * If you are calculating the stress with vdW-DF, please also cite:
     *
     *   R. Sabatini, E. Kucukbenli, B. Kolb, T. Thonhauser, and
     *   S. de Gironcoli, J. Phys.: Condens. Matter 24, 424209 (2012).
     *
     ************************************************************************

     Carrying out vdW-DF run using the following parameters:

     Nqs =      20    Nr_points =    1024   r_max =   100.000
     q_mesh =
               0.00001000     0.04494208     0.09755937     0.15916263
               0.23128650     0.31572767     0.41458969     0.53033537
               0.66584808     0.82450364     1.01025438     1.22772762
               1.48234092     1.78043706     2.12944203     2.53805004
               3.01644009     3.57652955     4.23227104     5.00000000

     Gradients computed in reciprocal space

     ************************************************************************


     Starting wfc are  293 randomized atomic wfcs +    2 random wfc

     total cpu time spent up to now is       57.7 secs

     Self-consistent Calculation

     iteration #  1     ecut=    40.42 Ry     beta=0.10
     Davidson diagonalization with overlap
     c_bands:  1 eigenvalues not converged
     c_bands:  1 eigenvalues not converged
     ethr =  1.00E-05,  avg # of iterations = 16.8

     negative rho (up, down):  1.349E-02 1.349E-02
 
     Magnetic moment per site:
     atom:    1    charge:    3.1245    magn:   -0.0002    constr:    0.0000
     atom:    2    charge:    1.8814    magn:    0.0002    constr:    0.0000
     atom:    3    charge:    3.1201    magn:    0.0000    constr:    0.0000
     atom:    4    charge:    1.8857    magn:   -0.0000    constr:    0.0000
     atom:    5    charge:    3.1144    magn:    0.0001    constr:    0.0000
     atom:    6    charge:    1.8752    magn:   -0.0002    constr:    0.0000
     atom:    7    charge:    3.1104    magn:    0.0000    constr:    0.0000
     atom:    8    charge:    1.8813    magn:   -0.0001    constr:    0.0000
     atom:    9    charge:    3.1245    magn:   -0.0002    constr:    0.0000
     atom:   10    charge:    1.8815    magn:    0.0002    constr:    0.0000
     atom:   11    charge:    3.1199    magn:    0.0000    constr:    0.0000
     atom:   12    charge:    1.8857    magn:   -0.0000    constr:    0.0000
     atom:   13    charge:    3.1144    magn:    0.0001    constr:    0.0000
     atom:   14    charge:    1.8891    magn:   -0.0000    constr:    0.0000
     atom:   15    charge:    3.1167    magn:    0.0000    constr:    0.0000
     atom:   16    charge:    1.8813    magn:   -0.0001    constr:    0.0000
     atom:   17    charge:    1.8570    magn:    0.0010    constr:    0.0000
     atom:   18    charge:    3.1242    magn:    0.0000    constr:    0.0000
     atom:   19    charge:    1.8763    magn:    0.0000    constr:    0.0000
     atom:   20    charge:    1.8833    magn:    0.0000    constr:    0.0000
     atom:   21    charge:    1.8833    magn:    0.0000    constr:    0.0000
     atom:   22    charge:    3.1200    magn:    0.0000    constr:    0.0000
     atom:   23    charge:    1.8897    magn:   -0.0001    constr:    0.0000
     atom:   24    charge:    1.8733    magn:   -0.0002    constr:    0.0000
     atom:   25    charge:    1.8857    magn:   -0.0000    constr:    0.0000
     atom:   26    charge:    3.1144    magn:    0.0001    constr:    0.0000
     atom:   27    charge:    1.8731    magn:   -0.0003    constr:    0.0000
     atom:   28    charge:    1.8831    magn:   -0.0002    constr:    0.0000
     atom:   29    charge:    1.8812    magn:   -0.0002    constr:    0.0000
     atom:   30    charge:    3.1191    magn:    0.0000    constr:    0.0000
     atom:   31    charge:    1.8819    magn:   -0.0000    constr:    0.0000
     atom:   32    charge:    1.8815    magn:   -0.0001    constr:    0.0000
     atom:   33    charge:    1.8570    magn:    0.0010    constr:    0.0000
     atom:   34    charge:    3.1241    magn:    0.0000    constr:    0.0000
     atom:   35    charge:    1.8763    magn:    0.0000    constr:    0.0000
     atom:   36    charge:    1.8833    magn:    0.0000    constr:    0.0000
     atom:   37    charge:    1.8833    magn:    0.0000    constr:    0.0000
     atom:   38    charge:    3.1200    magn:    0.0000    constr:    0.0000
     atom:   39    charge:    1.8823    magn:   -0.0001    constr:    0.0000
     atom:   40    charge:    1.8737    magn:   -0.0002    constr:    0.0000
     atom:   41    charge:    1.8857    magn:   -0.0000    constr:    0.0000
     atom:   42    charge:    3.1217    magn:    0.0001    constr:    0.0000
     atom:   43    charge:    1.8733    magn:   -0.0002    constr:    0.0000
     atom:   44    charge:    1.8831    magn:   -0.0002    constr:    0.0000
     atom:   45    charge:    1.8812    magn:   -0.0002    constr:    0.0000
     atom:   46    charge:    3.1191    magn:    0.0000    constr:    0.0000
     atom:   47    charge:    1.8817    magn:   -0.0001    constr:    0.0000
     atom:   48    charge:    1.8815    magn:   -0.0001    constr:    0.0000
     atom:   49    charge:    1.8899    magn:    0.0000    constr:    0.0000
     atom:   50    charge:    0.3844    magn:   -0.0000    constr:    0.0000

     total cpu time spent up to now is      818.0 secs

     total energy              =   -3005.54647984 Ry
     Harris-Foulkes estimate   =   -3005.58630864 Ry
     estimated scf accuracy    <       0.23447138 Ry

     total magnetization       =    -0.00 Bohr mag/cell
     absolute magnetization    =     0.01 Bohr mag/cell

     iteration #  2     ecut=    40.42 Ry     beta=0.10
     Davidson diagonalization with overlap
     ethr =  6.00E-05,  avg # of iterations =  4.7

     negative rho (up, down):  1.349E-02 1.348E-02
 
     Magnetic moment per site:
     atom:    1    charge:    3.1244    magn:   -0.0002    constr:    0.0000
     atom:    2    charge:    1.8810    magn:    0.0002    constr:    0.0000
     atom:    3    charge:    3.1200    magn:    0.0000    constr:    0.0000
     atom:    4    charge:    1.8858    magn:   -0.0000    constr:    0.0000
     atom:    5    charge:    3.1144    magn:    0.0001    constr:    0.0000
     atom:    6    charge:    1.8758    magn:   -0.0002    constr:    0.0000
     atom:    7    charge:    3.1098    magn:    0.0000    constr:    0.0000
     atom:    8    charge:    1.8816    magn:   -0.0001    constr:    0.0000
     atom:    9    charge:    3.1244    magn:   -0.0002    constr:    0.0000
     atom:   10    charge:    1.8811    magn:    0.0002    constr:    0.0000
     atom:   11    charge:    3.1198    magn:    0.0000    constr:    0.0000
     atom:   12    charge:    1.8858    magn:   -0.0000    constr:    0.0000
     atom:   13    charge:    3.1144    magn:    0.0001    constr:    0.0000
     atom:   14    charge:    1.8893    magn:   -0.0000    constr:    0.0000
     atom:   15    charge:    3.1167    magn:    0.0000    constr:    0.0000
     atom:   16    charge:    1.8816    magn:   -0.0001    constr:    0.0000
     atom:   17    charge:    1.8543    magn:    0.0010    constr:    0.0000
     atom:   18    charge:    3.1240    magn:    0.0000    constr:    0.0000
     atom:   19    charge:    1.8763    magn:    0.0000    constr:    0.0000
     atom:   20    charge:    1.8831    magn:    0.0000    constr:    0.0000
     atom:   21    charge:    1.8831    magn:    0.0000    constr:    0.0000
     atom:   22    charge:    3.1199    magn:    0.0000    constr:    0.0000
     atom:   23    charge:    1.8899    magn:   -0.0001    constr:    0.0000
     atom:   24    charge:    1.8738    magn:   -0.0002    constr:    0.0000
     atom:   25    charge:    1.8858    magn:   -0.0000    constr:    0.0000
     atom:   26    charge:    3.1143    magn:    0.0001    constr:    0.0000
     atom:   27    charge:    1.8739    magn:   -0.0003    constr:    0.0000
     atom:   28    charge:    1.8837    magn:   -0.0002    constr:    0.0000
     atom:   29    charge:    1.8818    magn:   -0.0002    constr:    0.0000
     atom:   30    charge:    3.1192    magn:    0.0000    constr:    0.0000
     atom:   31    charge:    1.8820    magn:   -0.0000    constr:    0.0000
     atom:   32    charge:    1.8818    magn:   -0.0001    constr:    0.0000
     atom:   33    charge:    1.8543    magn:    0.0010    constr:    0.0000
     atom:   34    charge:    3.1240    magn:    0.0000    constr:    0.0000
     atom:   35    charge:    1.8763    magn:    0.0000    constr:    0.0000
     atom:   36    charge:    1.8831    magn:    0.0000    constr:    0.0000
     atom:   37    charge:    1.8831    magn:    0.0000    constr:    0.0000
     atom:   38    charge:    3.1199    magn:    0.0000    constr:    0.0000
     atom:   39    charge:    1.8826    magn:   -0.0001    constr:    0.0000
     atom:   40    charge:    1.8742    magn:   -0.0002    constr:    0.0000
     atom:   41    charge:    1.8858    magn:   -0.0000    constr:    0.0000
     atom:   42    charge:    3.1217    magn:    0.0001    constr:    0.0000
     atom:   43    charge:    1.8741    magn:   -0.0002    constr:    0.0000
     atom:   44    charge:    1.8837    magn:   -0.0002    constr:    0.0000
     atom:   45    charge:    1.8818    magn:   -0.0002    constr:    0.0000
     atom:   46    charge:    3.1192    magn:    0.0000    constr:    0.0000
     atom:   47    charge:    1.8818    magn:   -0.0001    constr:    0.0000
     atom:   48    charge:    1.8818    magn:   -0.0001    constr:    0.0000
     atom:   49    charge:    1.8907    magn:    0.0000    constr:    0.0000
     atom:   50    charge:    0.3854    magn:   -0.0000    constr:    0.0000

     total cpu time spent up to now is     1020.4 secs

     total energy              =   -3005.54295446 Ry
     Harris-Foulkes estimate   =   -3005.57211652 Ry
     estimated scf accuracy    <       0.41046382 Ry

     total magnetization       =     0.01 Bohr mag/cell
     absolute magnetization    =     0.02 Bohr mag/cell

     iteration #  3     ecut=    40.42 Ry     beta=0.10
     Davidson diagonalization with overlap
     ethr =  6.00E-05,  avg # of iterations =  4.0

     negative rho (up, down):  1.347E-02 1.347E-02
 
     Magnetic moment per site:
     atom:    1    charge:    3.1243    magn:   -0.0002    constr:    0.0000
     atom:    2    charge:    1.8808    magn:    0.0002    constr:    0.0000
     atom:    3    charge:    3.1200    magn:    0.0000    constr:    0.0000
     atom:    4    charge:    1.8855    magn:   -0.0000    constr:    0.0000
     atom:    5    charge:    3.1144    magn:    0.0001    constr:    0.0000
     atom:    6    charge:    1.8766    magn:   -0.0002    constr:    0.0000
     atom:    7    charge:    3.1075    magn:    0.0000    constr:    0.0000
     atom:    8    charge:    1.8817    magn:   -0.0001    constr:    0.0000
     atom:    9    charge:    3.1243    magn:   -0.0002    constr:    0.0000
     atom:   10    charge:    1.8809    magn:    0.0002    constr:    0.0000
     atom:   11    charge:    3.1198    magn:    0.0000    constr:    0.0000
     atom:   12    charge:    1.8855    magn:   -0.0000    constr:    0.0000
     atom:   13    charge:    3.1144    magn:    0.0001    constr:    0.0000
     atom:   14    charge:    1.8895    magn:   -0.0000    constr:    0.0000
     atom:   15    charge:    3.1166    magn:    0.0000    constr:    0.0000
     atom:   16    charge:    1.8817    magn:   -0.0001    constr:    0.0000
     atom:   17    charge:    1.8548    magn:    0.0009    constr:    0.0000
     atom:   18    charge:    3.1240    magn:    0.0000    constr:    0.0000
     atom:   19    charge:    1.8762    magn:    0.0000    constr:    0.0000
     atom:   20    charge:    1.8832    magn:    0.0000    constr:    0.0000
     atom:   21    charge:    1.8832    magn:    0.0000    constr:    0.0000
     atom:   22    charge:    3.1199    magn:    0.0000    constr:    0.0000
     atom:   23    charge:    1.8896    magn:   -0.0001    constr:    0.0000
     atom:   24    charge:    1.8733    magn:   -0.0002    constr:    0.0000
     atom:   25    charge:    1.8854    magn:   -0.0000    constr:    0.0000
     atom:   26    charge:    3.1142    magn:    0.0001    constr:    0.0000
     atom:   27    charge:    1.8747    magn:   -0.0002    constr:    0.0000
     atom:   28    charge:    1.8837    magn:   -0.0002    constr:    0.0000
     atom:   29    charge:    1.8817    magn:   -0.0002    constr:    0.0000
     atom:   30    charge:    3.1193    magn:    0.0000    constr:    0.0000
     atom:   31    charge:    1.8820    magn:   -0.0000    constr:    0.0000
     atom:   32    charge:    1.8819    magn:   -0.0001    constr:    0.0000
     atom:   33    charge:    1.8548    magn:    0.0010    constr:    0.0000
     atom:   34    charge:    3.1240    magn:    0.0000    constr:    0.0000
     atom:   35    charge:    1.8762    magn:    0.0000    constr:    0.0000
     atom:   36    charge:    1.8832    magn:    0.0000    constr:    0.0000
     atom:   37    charge:    1.8832    magn:    0.0000    constr:    0.0000
     atom:   38    charge:    3.1199    magn:    0.0000    constr:    0.0000
     atom:   39    charge:    1.8820    magn:   -0.0001    constr:    0.0000
     atom:   40    charge:    1.8737    magn:   -0.0002    constr:    0.0000
     atom:   41    charge:    1.8854    magn:   -0.0000    constr:    0.0000
     atom:   42    charge:    3.1216    magn:    0.0001    constr:    0.0000
     atom:   43    charge:    1.8745    magn:   -0.0002    constr:    0.0000
     atom:   44    charge:    1.8837    magn:   -0.0002    constr:    0.0000
     atom:   45    charge:    1.8817    magn:   -0.0002    constr:    0.0000
     atom:   46    charge:    3.1193    magn:    0.0000    constr:    0.0000
     atom:   47    charge:    1.8818    magn:   -0.0001    constr:    0.0000
     atom:   48    charge:    1.8819    magn:   -0.0001    constr:    0.0000
     atom:   49    charge:    1.8938    magn:    0.0000    constr:    0.0000
     atom:   50    charge:    0.3899    magn:   -0.0000    constr:    0.0000

     total cpu time spent up to now is     1213.4 secs

     total energy              =   -3005.53709138 Ry
     Harris-Foulkes estimate   =   -3005.55709726 Ry
     estimated scf accuracy    <       0.08283000 Ry

     total magnetization       =    -0.00 Bohr mag/cell
     absolute magnetization    =     0.01 Bohr mag/cell

     iteration #  4     ecut=    40.42 Ry     beta=0.10
     Davidson diagonalization with overlap
     ethr =  2.12E-05,  avg # of iterations =  6.4

     negative rho (up, down):  1.346E-02 1.346E-02
 
     Magnetic moment per site:
     atom:    1    charge:    3.1244    magn:   -0.0002    constr:    0.0000
     atom:    2    charge:    1.8808    magn:    0.0002    constr:    0.0000
     atom:    3    charge:    3.1200    magn:    0.0000    constr:    0.0000
     atom:    4    charge:    1.8855    magn:   -0.0000    constr:    0.0000
     atom:    5    charge:    3.1144    magn:    0.0001    constr:    0.0000
     atom:    6    charge:    1.8766    magn:   -0.0001    constr:    0.0000
     atom:    7    charge:    3.1090    magn:    0.0000    constr:    0.0000
     atom:    8    charge:    1.8814    magn:   -0.0001    constr:    0.0000
     atom:    9    charge:    3.1244    magn:   -0.0002    constr:    0.0000
     atom:   10    charge:    1.8809    magn:    0.0002    constr:    0.0000
     atom:   11    charge:    3.1198    magn:    0.0000    constr:    0.0000
     atom:   12    charge:    1.8855    magn:   -0.0000    constr:    0.0000
     atom:   13    charge:    3.1144    magn:    0.0001    constr:    0.0000
     atom:   14    charge:    1.8895    magn:   -0.0000    constr:    0.0000
     atom:   15    charge:    3.1164    magn:    0.0000    constr:    0.0000
     atom:   16    charge:    1.8814    magn:   -0.0001    constr:    0.0000
     atom:   17    charge:    1.8546    magn:    0.0009    constr:    0.0000
     atom:   18    charge:    3.1239    magn:    0.0000    constr:    0.0000
     atom:   19    charge:    1.8763    magn:    0.0000    constr:    0.0000
     atom:   20    charge:    1.8832    magn:    0.0000    constr:    0.0000
     atom:   21    charge:    1.8832    magn:    0.0000    constr:    0.0000
     atom:   22    charge:    3.1199    magn:    0.0000    constr:    0.0000
     atom:   23    charge:    1.8897    magn:   -0.0001    constr:    0.0000
     atom:   24    charge:    1.8735    magn:   -0.0001    constr:    0.0000
     atom:   25    charge:    1.8855    magn:   -0.0000    constr:    0.0000
     atom:   26    charge:    3.1143    magn:    0.0001    constr:    0.0000
     atom:   27    charge:    1.8746    magn:   -0.0002    constr:    0.0000
     atom:   28    charge:    1.8837    magn:   -0.0002    constr:    0.0000
     atom:   29    charge:    1.8818    magn:   -0.0002    constr:    0.0000
     atom:   30    charge:    3.1193    magn:    0.0000    constr:    0.0000
     atom:   31    charge:    1.8816    magn:   -0.0000    constr:    0.0000
     atom:   32    charge:    1.8815    magn:   -0.0001    constr:    0.0000
     atom:   33    charge:    1.8546    magn:    0.0009    constr:    0.0000
     atom:   34    charge:    3.1239    magn:    0.0000    constr:    0.0000
     atom:   35    charge:    1.8763    magn:    0.0000    constr:    0.0000
     atom:   36    charge:    1.8832    magn:    0.0000    constr:    0.0000
     atom:   37    charge:    1.8832    magn:    0.0000    constr:    0.0000
     atom:   38    charge:    3.1199    magn:    0.0000    constr:    0.0000
     atom:   39    charge:    1.8822    magn:   -0.0001    constr:    0.0000
     atom:   40    charge:    1.8739    magn:   -0.0002    constr:    0.0000
     atom:   41    charge:    1.8855    magn:   -0.0000    constr:    0.0000
     atom:   42    charge:    3.1217    magn:    0.0001    constr:    0.0000
     atom:   43    charge:    1.8743    magn:   -0.0002    constr:    0.0000
     atom:   44    charge:    1.8837    magn:   -0.0002    constr:    0.0000
     atom:   45    charge:    1.8818    magn:   -0.0002    constr:    0.0000
     atom:   46    charge:    3.1193    magn:    0.0000    constr:    0.0000
     atom:   47    charge:    1.8809    magn:   -0.0001    constr:    0.0000
     atom:   48    charge:    1.8815    magn:   -0.0001    constr:    0.0000
     atom:   49    charge:    1.8933    magn:    0.0000    constr:    0.0000
     atom:   50    charge:    0.3924    magn:   -0.0000    constr:    0.0000

     total cpu time spent up to now is     1441.8 secs

     total energy              =   -3005.53444924 Ry
     Harris-Foulkes estimate   =   -3005.54101756 Ry
     estimated scf accuracy    <       0.02963246 Ry

     total magnetization       =     0.00 Bohr mag/cell
     absolute magnetization    =     0.01 Bohr mag/cell

     iteration #  5     ecut=    40.42 Ry     beta=0.10
     Davidson diagonalization with overlap
     ethr =  7.58E-06,  avg # of iterations =  3.1

     negative rho (up, down):  1.346E-02 1.346E-02
 
     Magnetic moment per site:
     atom:    1    charge:    3.1244    magn:   -0.0002    constr:    0.0000
     atom:    2    charge:    1.8808    magn:    0.0002    constr:    0.0000
     atom:    3    charge:    3.1200    magn:    0.0000    constr:    0.0000
     atom:    4    charge:    1.8854    magn:   -0.0000    constr:    0.0000
     atom:    5    charge:    3.1144    magn:    0.0000    constr:    0.0000
     atom:    6    charge:    1.8763    magn:   -0.0001    constr:    0.0000
     atom:    7    charge:    3.1165    magn:    0.0000    constr:    0.0000
     atom:    8    charge:    1.8809    magn:   -0.0000    constr:    0.0000
     atom:    9    charge:    3.1244    magn:   -0.0002    constr:    0.0000
     atom:   10    charge:    1.8810    magn:    0.0002    constr:    0.0000
     atom:   11    charge:    3.1198    magn:    0.0000    constr:    0.0000
     atom:   12    charge:    1.8854    magn:   -0.0000    constr:    0.0000
     atom:   13    charge:    3.1144    magn:    0.0000    constr:    0.0000
     atom:   14    charge:    1.8893    magn:   -0.0000    constr:    0.0000
     atom:   15    charge:    3.1161    magn:    0.0000    constr:    0.0000
     atom:   16    charge:    1.8809    magn:   -0.0000    constr:    0.0000
     atom:   17    charge:    1.8544    magn:    0.0008    constr:    0.0000
     atom:   18    charge:    3.1237    magn:    0.0000    constr:    0.0000
     atom:   19    charge:    1.8764    magn:    0.0000    constr:    0.0000
     atom:   20    charge:    1.8831    magn:    0.0000    constr:    0.0000
     atom:   21    charge:    1.8831    magn:    0.0000    constr:    0.0000
     atom:   22    charge:    3.1199    magn:    0.0000    constr:    0.0000
     atom:   23    charge:    1.8897    magn:   -0.0001    constr:    0.0000
     atom:   24    charge:    1.8734    magn:   -0.0001    constr:    0.0000
     atom:   25    charge:    1.8854    magn:   -0.0000    constr:    0.0000
     atom:   26    charge:    3.1144    magn:    0.0001    constr:    0.0000
     atom:   27    charge:    1.8745    magn:   -0.0002    constr:    0.0000
     atom:   28    charge:    1.8837    magn:   -0.0002    constr:    0.0000
     atom:   29    charge:    1.8818    magn:   -0.0002    constr:    0.0000
     atom:   30    charge:    3.1194    magn:    0.0000    constr:    0.0000
     atom:   31    charge:    1.8807    magn:   -0.0000    constr:    0.0000
     atom:   32    charge:    1.8813    magn:   -0.0000    constr:    0.0000
     atom:   33    charge:    1.8544    magn:    0.0008    constr:    0.0000
     atom:   34    charge:    3.1237    magn:    0.0000    constr:    0.0000
     atom:   35    charge:    1.8764    magn:    0.0000    constr:    0.0000
     atom:   36    charge:    1.8831    magn:    0.0000    constr:    0.0000
     atom:   37    charge:    1.8831    magn:    0.0000    constr:    0.0000
     atom:   38    charge:    3.1199    magn:    0.0000    constr:    0.0000
     atom:   39    charge:    1.8823    magn:   -0.0001    constr:    0.0000
     atom:   40    charge:    1.8738    magn:   -0.0001    constr:    0.0000
     atom:   41    charge:    1.8854    magn:   -0.0000    constr:    0.0000
     atom:   42    charge:    3.1218    magn:    0.0001    constr:    0.0000
     atom:   43    charge:    1.8742    magn:   -0.0002    constr:    0.0000
     atom:   44    charge:    1.8837    magn:   -0.0002    constr:    0.0000
     atom:   45    charge:    1.8818    magn:   -0.0002    constr:    0.0000
     atom:   46    charge:    3.1194    magn:    0.0000    constr:    0.0000
     atom:   47    charge:    1.8798    magn:   -0.0001    constr:    0.0000
     atom:   48    charge:    1.8813    magn:   -0.0000    constr:    0.0000
     atom:   49    charge:    1.8892    magn:    0.0000    constr:    0.0000
     atom:   50    charge:    0.3968    magn:   -0.0000    constr:    0.0000

     total cpu time spent up to now is     1623.7 secs

     total energy              =   -3005.52735850 Ry
     Harris-Foulkes estimate   =   -3005.53521529 Ry
     estimated scf accuracy    <       0.01511582 Ry

     total magnetization       =     0.00 Bohr mag/cell
     absolute magnetization    =     0.01 Bohr mag/cell

     iteration #  6     ecut=    40.42 Ry     beta=0.10
     Davidson diagonalization with overlap
     ethr =  3.87E-06,  avg # of iterations =  6.2

     negative rho (up, down):  1.347E-02 1.347E-02
 
     Magnetic moment per site:
     atom:    1    charge:    3.1244    magn:   -0.0001    constr:    0.0000
     atom:    2    charge:    1.8809    magn:    0.0001    constr:    0.0000
     atom:    3    charge:    3.1200    magn:    0.0000    constr:    0.0000
     atom:    4    charge:    1.8855    magn:   -0.0000    constr:    0.0000
     atom:    5    charge:    3.1144    magn:    0.0000    constr:    0.0000
     atom:    6    charge:    1.8759    magn:   -0.0001    constr:    0.0000
     atom:    7    charge:    3.1167    magn:    0.0000    constr:    0.0000
     atom:    8    charge:    1.8812    magn:   -0.0000    constr:    0.0000
     atom:    9    charge:    3.1244    magn:   -0.0001    constr:    0.0000
     atom:   10    charge:    1.8810    magn:    0.0002    constr:    0.0000
     atom:   11    charge:    3.1198    magn:    0.0000    constr:    0.0000
     atom:   12    charge:    1.8855    magn:   -0.0000    constr:    0.0000
     atom:   13    charge:    3.1144    magn:    0.0000    constr:    0.0000
     atom:   14    charge:    1.8892    magn:   -0.0000    constr:    0.0000
     atom:   15    charge:    3.1163    magn:    0.0000    constr:    0.0000
     atom:   16    charge:    1.8812    magn:   -0.0000    constr:    0.0000
     atom:   17    charge:    1.8546    magn:    0.0008    constr:    0.0000
     atom:   18    charge:    3.1238    magn:    0.0000    constr:    0.0000
     atom:   19    charge:    1.8763    magn:    0.0000    constr:    0.0000
     atom:   20    charge:    1.8831    magn:    0.0000    constr:    0.0000
     atom:   21    charge:    1.8831    magn:    0.0000    constr:    0.0000
     atom:   22    charge:    3.1199    magn:    0.0000    constr:    0.0000
     atom:   23    charge:    1.8897    magn:   -0.0000    constr:    0.0000
     atom:   24    charge:    1.8734    magn:   -0.0001    constr:    0.0000
     atom:   25    charge:    1.8855    magn:   -0.0000    constr:    0.0000
     atom:   26    charge:    3.1144    magn:    0.0001    constr:    0.0000
     atom:   27    charge:    1.8743    magn:   -0.0002    constr:    0.0000
     atom:   28    charge:    1.8836    magn:   -0.0001    constr:    0.0000
     atom:   29    charge:    1.8817    magn:   -0.0001    constr:    0.0000
     atom:   30    charge:    3.1194    magn:    0.0000    constr:    0.0000
     atom:   31    charge:    1.8808    magn:   -0.0000    constr:    0.0000
     atom:   32    charge:    1.8816    magn:   -0.0000    constr:    0.0000
     atom:   33    charge:    1.8546    magn:    0.0008    constr:    0.0000
     atom:   34    charge:    3.1238    magn:    0.0000    constr:    0.0000
     atom:   35    charge:    1.8764    magn:    0.0000    constr:    0.0000
     atom:   36    charge:    1.8831    magn:    0.0000    constr:    0.0000
     atom:   37    charge:    1.8831    magn:    0.0000    constr:    0.0000
     atom:   38    charge:    3.1199    magn:    0.0000    constr:    0.0000
     atom:   39    charge:    1.8823    magn:   -0.0001    constr:    0.0000
     atom:   40    charge:    1.8738    magn:   -0.0001    constr:    0.0000
     atom:   41    charge:    1.8855    magn:   -0.0000    constr:    0.0000
     atom:   42    charge:    3.1217    magn:    0.0001    constr:    0.0000
     atom:   43    charge:    1.8742    magn:   -0.0002    constr:    0.0000
     atom:   44    charge:    1.8836    magn:   -0.0001    constr:    0.0000
     atom:   45    charge:    1.8817    magn:   -0.0001    constr:    0.0000
     atom:   46    charge:    3.1194    magn:    0.0000    constr:    0.0000
     atom:   47    charge:    1.8802    magn:   -0.0000    constr:    0.0000
     atom:   48    charge:    1.8816    magn:   -0.0000    constr:    0.0000
     atom:   49    charge:    1.8898    magn:    0.0000    constr:    0.0000
     atom:   50    charge:    0.3975    magn:   -0.0000    constr:    0.0000

     total cpu time spent up to now is     1863.7 secs

     total energy              =   -3005.52869759 Ry
     Harris-Foulkes estimate   =   -3005.52927297 Ry
     estimated scf accuracy    <       0.00258656 Ry

     total magnetization       =     0.00 Bohr mag/cell
     absolute magnetization    =     0.01 Bohr mag/cell

     iteration #  7     ecut=    40.42 Ry     beta=0.10
     Davidson diagonalization with overlap
     ethr =  6.62E-07,  avg # of iterations =  2.2

     negative rho (up, down):  1.348E-02 1.348E-02
 
     Magnetic moment per site:
     atom:    1    charge:    3.1244    magn:   -0.0001    constr:    0.0000
     atom:    2    charge:    1.8809    magn:    0.0001    constr:    0.0000
     atom:    3    charge:    3.1200    magn:    0.0000    constr:    0.0000
     atom:    4    charge:    1.8855    magn:   -0.0000    constr:    0.0000
     atom:    5    charge:    3.1144    magn:    0.0000    constr:    0.0000
     atom:    6    charge:    1.8758    magn:   -0.0001    constr:    0.0000
     atom:    7    charge:    3.1173    magn:    0.0000    constr:    0.0000
     atom:    8    charge:    1.8815    magn:   -0.0000    constr:    0.0000
     atom:    9    charge:    3.1244    magn:   -0.0001    constr:    0.0000
     atom:   10    charge:    1.8810    magn:    0.0001    constr:    0.0000
     atom:   11    charge:    3.1198    magn:    0.0000    constr:    0.0000
     atom:   12    charge:    1.8855    magn:   -0.0000    constr:    0.0000
     atom:   13    charge:    3.1144    magn:    0.0000    constr:    0.0000
     atom:   14    charge:    1.8893    magn:   -0.0000    constr:    0.0000
     atom:   15    charge:    3.1165    magn:    0.0000    constr:    0.0000
     atom:   16    charge:    1.8815    magn:   -0.0000    constr:    0.0000
     atom:   17    charge:    1.8547    magn:    0.0007    constr:    0.0000
     atom:   18    charge:    3.1239    magn:   -0.0000    constr:    0.0000
     atom:   19    charge:    1.8763    magn:    0.0000    constr:    0.0000
     atom:   20    charge:    1.8831    magn:    0.0000    constr:    0.0000
     atom:   21    charge:    1.8831    magn:    0.0000    constr:    0.0000
     atom:   22    charge:    3.1199    magn:    0.0000    constr:    0.0000
     atom:   23    charge:    1.8897    magn:   -0.0000    constr:    0.0000
     atom:   24    charge:    1.8735    magn:   -0.0001    constr:    0.0000
     atom:   25    charge:    1.8855    magn:   -0.0000    constr:    0.0000
     atom:   26    charge:    3.1143    magn:    0.0001    constr:    0.0000
     atom:   27    charge:    1.8742    magn:   -0.0002    constr:    0.0000
     atom:   28    charge:    1.8836    magn:   -0.0001    constr:    0.0000
     atom:   29    charge:    1.8817    magn:   -0.0001    constr:    0.0000
     atom:   30    charge:    3.1194    magn:    0.0000    constr:    0.0000
     atom:   31    charge:    1.8810    magn:   -0.0000    constr:    0.0000
     atom:   32    charge:    1.8819    magn:   -0.0000    constr:    0.0000
     atom:   33    charge:    1.8547    magn:    0.0007    constr:    0.0000
     atom:   34    charge:    3.1239    magn:   -0.0000    constr:    0.0000
     atom:   35    charge:    1.8763    magn:    0.0000    constr:    0.0000
     atom:   36    charge:    1.8831    magn:    0.0000    constr:    0.0000
     atom:   37    charge:    1.8831    magn:    0.0000    constr:    0.0000
     atom:   38    charge:    3.1199    magn:    0.0000    constr:    0.0000
     atom:   39    charge:    1.8823    magn:   -0.0001    constr:    0.0000
     atom:   40    charge:    1.8739    magn:   -0.0001    constr:    0.0000
     atom:   41    charge:    1.8855    magn:   -0.0000    constr:    0.0000
     atom:   42    charge:    3.1217    magn:    0.0001    constr:    0.0000
     atom:   43    charge:    1.8742    magn:   -0.0001    constr:    0.0000
     atom:   44    charge:    1.8836    magn:   -0.0001    constr:    0.0000
     atom:   45    charge:    1.8817    magn:   -0.0001    constr:    0.0000
     atom:   46    charge:    3.1194    magn:    0.0000    constr:    0.0000
     atom:   47    charge:    1.8805    magn:   -0.0000    constr:    0.0000
     atom:   48    charge:    1.8819    magn:   -0.0000    constr:    0.0000
     atom:   49    charge:    1.8897    magn:    0.0000    constr:    0.0000
     atom:   50    charge:    0.3968    magn:   -0.0000    constr:    0.0000

     total cpu time spent up to now is     2034.8 secs

     total energy              =   -3005.52875656 Ry
     Harris-Foulkes estimate   =   -3005.52893978 Ry
     estimated scf accuracy    <       0.00093848 Ry

     total magnetization       =     0.00 Bohr mag/cell
     absolute magnetization    =     0.01 Bohr mag/cell

     iteration #  8     ecut=    40.42 Ry     beta=0.10
     Davidson diagonalization with overlap
     ethr =  2.40E-07,  avg # of iterations =  2.0

     negative rho (up, down):  1.348E-02 1.348E-02
 
     Magnetic moment per site:
     atom:    1    charge:    3.1244    magn:   -0.0001    constr:    0.0000
     atom:    2    charge:    1.8809    magn:    0.0001    constr:    0.0000
     atom:    3    charge:    3.1200    magn:   -0.0000    constr:    0.0000
     atom:    4    charge:    1.8856    magn:   -0.0000    constr:    0.0000
     atom:    5    charge:    3.1144    magn:    0.0000    constr:    0.0000
     atom:    6    charge:    1.8759    magn:   -0.0001    constr:    0.0000
     atom:    7    charge:    3.1165    magn:    0.0000    constr:    0.0000
     atom:    8    charge:    1.8816    magn:   -0.0000    constr:    0.0000
     atom:    9    charge:    3.1244    magn:   -0.0001    constr:    0.0000
     atom:   10    charge:    1.8810    magn:    0.0001    constr:    0.0000
     atom:   11    charge:    3.1198    magn:    0.0000    constr:    0.0000
     atom:   12    charge:    1.8856    magn:   -0.0000    constr:    0.0000
     atom:   13    charge:    3.1144    magn:    0.0000    constr:    0.0000
     atom:   14    charge:    1.8893    magn:   -0.0000    constr:    0.0000
     atom:   15    charge:    3.1166    magn:    0.0000    constr:    0.0000
     atom:   16    charge:    1.8816    magn:   -0.0000    constr:    0.0000
     atom:   17    charge:    1.8548    magn:    0.0007    constr:    0.0000
     atom:   18    charge:    3.1240    magn:   -0.0000    constr:    0.0000
     atom:   19    charge:    1.8763    magn:    0.0000    constr:    0.0000
     atom:   20    charge:    1.8832    magn:    0.0000    constr:    0.0000
     atom:   21    charge:    1.8832    magn:    0.0000    constr:    0.0000
     atom:   22    charge:    3.1199    magn:    0.0000    constr:    0.0000
     atom:   23    charge:    1.8897    magn:   -0.0000    constr:    0.0000
     atom:   24    charge:    1.8735    magn:   -0.0001    constr:    0.0000
     atom:   25    charge:    1.8856    magn:   -0.0000    constr:    0.0000
     atom:   26    charge:    3.1143    magn:    0.0000    constr:    0.0000
     atom:   27    charge:    1.8742    magn:   -0.0001    constr:    0.0000
     atom:   28    charge:    1.8836    magn:   -0.0001    constr:    0.0000
     atom:   29    charge:    1.8817    magn:   -0.0001    constr:    0.0000
     atom:   30    charge:    3.1194    magn:    0.0000    constr:    0.0000
     atom:   31    charge:    1.8813    magn:   -0.0000    constr:    0.0000
     atom:   32    charge:    1.8820    magn:   -0.0000    constr:    0.0000
     atom:   33    charge:    1.8548    magn:    0.0007    constr:    0.0000
     atom:   34    charge:    3.1239    magn:   -0.0000    constr:    0.0000
     atom:   35    charge:    1.8763    magn:    0.0000    constr:    0.0000
     atom:   36    charge:    1.8832    magn:    0.0000    constr:    0.0000
     atom:   37    charge:    1.8832    magn:    0.0000    constr:    0.0000
     atom:   38    charge:    3.1199    magn:    0.0000    constr:    0.0000
     atom:   39    charge:    1.8823    magn:   -0.0001    constr:    0.0000
     atom:   40    charge:    1.8739    magn:   -0.0001    constr:    0.0000
     atom:   41    charge:    1.8856    magn:   -0.0000    constr:    0.0000
     atom:   42    charge:    3.1217    magn:    0.0000    constr:    0.0000
     atom:   43    charge:    1.8742    magn:   -0.0001    constr:    0.0000
     atom:   44    charge:    1.8836    magn:   -0.0001    constr:    0.0000
     atom:   45    charge:    1.8817    magn:   -0.0001    constr:    0.0000
     atom:   46    charge:    3.1194    magn:    0.0000    constr:    0.0000
     atom:   47    charge:    1.8808    magn:   -0.0000    constr:    0.0000
     atom:   48    charge:    1.8820    magn:   -0.0000    constr:    0.0000
     atom:   49    charge:    1.8907    magn:    0.0000    constr:    0.0000
     atom:   50    charge:    0.3962    magn:   -0.0000    constr:    0.0000

     total cpu time spent up to now is     2200.1 secs

     total energy              =   -3005.52879165 Ry
     Harris-Foulkes estimate   =   -3005.52887549 Ry
     estimated scf accuracy    <       0.00081905 Ry

     total magnetization       =     0.00 Bohr mag/cell
     absolute magnetization    =     0.01 Bohr mag/cell

     iteration #  9     ecut=    40.42 Ry     beta=0.10
     Davidson diagonalization with overlap
     ethr =  2.09E-07,  avg # of iterations =  2.0

     negative rho (up, down):  1.349E-02 1.349E-02
 
     Magnetic moment per site:
     atom:    1    charge:    3.1245    magn:   -0.0001    constr:    0.0000
     atom:    2    charge:    1.8809    magn:    0.0001    constr:    0.0000
     atom:    3    charge:    3.1200    magn:   -0.0000    constr:    0.0000
     atom:    4    charge:    1.8855    magn:   -0.0000    constr:    0.0000
     atom:    5    charge:    3.1144    magn:    0.0000    constr:    0.0000
     atom:    6    charge:    1.8761    magn:   -0.0001    constr:    0.0000
     atom:    7    charge:    3.1158    magn:    0.0000    constr:    0.0000
     atom:    8    charge:    1.8816    magn:   -0.0000    constr:    0.0000
     atom:    9    charge:    3.1245    magn:   -0.0001    constr:    0.0000
     atom:   10    charge:    1.8810    magn:    0.0001    constr:    0.0000
     atom:   11    charge:    3.1198    magn:    0.0000    constr:    0.0000
     atom:   12    charge:    1.8855    magn:   -0.0000    constr:    0.0000
     atom:   13    charge:    3.1144    magn:    0.0000    constr:    0.0000
     atom:   14    charge:    1.8894    magn:   -0.0000    constr:    0.0000
     atom:   15    charge:    3.1166    magn:    0.0000    constr:    0.0000
     atom:   16    charge:    1.8816    magn:   -0.0000    constr:    0.0000
     atom:   17    charge:    1.8548    magn:    0.0006    constr:    0.0000
     atom:   18    charge:    3.1239    magn:   -0.0000    constr:    0.0000
     atom:   19    charge:    1.8763    magn:    0.0000    constr:    0.0000
     atom:   20    charge:    1.8832    magn:    0.0000    constr:    0.0000
     atom:   21    charge:    1.8832    magn:    0.0000    constr:    0.0000
     atom:   22    charge:    3.1199    magn:    0.0000    constr:    0.0000
     atom:   23    charge:    1.8897    magn:   -0.0000    constr:    0.0000
     atom:   24    charge:    1.8735    magn:   -0.0001    constr:    0.0000
     atom:   25    charge:    1.8855    magn:   -0.0000    constr:    0.0000
     atom:   26    charge:    3.1143    magn:    0.0000    constr:    0.0000
     atom:   27    charge:    1.8743    magn:   -0.0001    constr:    0.0000
     atom:   28    charge:    1.8836    magn:   -0.0001    constr:    0.0000
     atom:   29    charge:    1.8817    magn:   -0.0001    constr:    0.0000
     atom:   30    charge:    3.1194    magn:    0.0000    constr:    0.0000
     atom:   31    charge:    1.8815    magn:   -0.0000    constr:    0.0000
     atom:   32    charge:    1.8820    magn:   -0.0000    constr:    0.0000
     atom:   33    charge:    1.8548    magn:    0.0006    constr:    0.0000
     atom:   34    charge:    3.1239    magn:   -0.0000    constr:    0.0000
     atom:   35    charge:    1.8763    magn:    0.0000    constr:    0.0000
     atom:   36    charge:    1.8832    magn:    0.0000    constr:    0.0000
     atom:   37    charge:    1.8832    magn:    0.0000    constr:    0.0000
     atom:   38    charge:    3.1199    magn:    0.0000    constr:    0.0000
     atom:   39    charge:    1.8822    magn:   -0.0001    constr:    0.0000
     atom:   40    charge:    1.8739    magn:   -0.0001    constr:    0.0000
     atom:   41    charge:    1.8855    magn:   -0.0000    constr:    0.0000
     atom:   42    charge:    3.1217    magn:    0.0000    constr:    0.0000
     atom:   43    charge:    1.8742    magn:   -0.0001    constr:    0.0000
     atom:   44    charge:    1.8836    magn:   -0.0001    constr:    0.0000
     atom:   45    charge:    1.8817    magn:   -0.0001    constr:    0.0000
     atom:   46    charge:    3.1194    magn:    0.0000    constr:    0.0000
     atom:   47    charge:    1.8810    magn:   -0.0000    constr:    0.0000
     atom:   48    charge:    1.8820    magn:   -0.0000    constr:    0.0000
     atom:   49    charge:    1.8915    magn:    0.0000    constr:    0.0000
     atom:   50    charge:    0.3957    magn:   -0.0000    constr:    0.0000

     total cpu time spent up to now is     2365.9 secs

     total energy              =   -3005.52880942 Ry
     Harris-Foulkes estimate   =   -3005.52882308 Ry
     estimated scf accuracy    <       0.00004873 Ry

     total magnetization       =     0.00 Bohr mag/cell
     absolute magnetization    =     0.01 Bohr mag/cell

     iteration # 10     ecut=    40.42 Ry     beta=0.10
     Davidson diagonalization with overlap
     ethr =  1.25E-08,  avg # of iterations =  3.0

     negative rho (up, down):  1.349E-02 1.349E-02
 
     Magnetic moment per site:
     atom:    1    charge:    3.1244    magn:   -0.0001    constr:    0.0000
     atom:    2    charge:    1.8809    magn:    0.0001    constr:    0.0000
     atom:    3    charge:    3.1200    magn:   -0.0000    constr:    0.0000
     atom:    4    charge:    1.8855    magn:   -0.0000    constr:    0.0000
     atom:    5    charge:    3.1144    magn:    0.0000    constr:    0.0000
     atom:    6    charge:    1.8761    magn:   -0.0001    constr:    0.0000
     atom:    7    charge:    3.1158    magn:    0.0000    constr:    0.0000
     atom:    8    charge:    1.8815    magn:   -0.0000    constr:    0.0000
     atom:    9    charge:    3.1244    magn:   -0.0001    constr:    0.0000
     atom:   10    charge:    1.8810    magn:    0.0001    constr:    0.0000
     atom:   11    charge:    3.1198    magn:    0.0000    constr:    0.0000
     atom:   12    charge:    1.8855    magn:   -0.0000    constr:    0.0000
     atom:   13    charge:    3.1144    magn:    0.0000    constr:    0.0000
     atom:   14    charge:    1.8894    magn:   -0.0000    constr:    0.0000
     atom:   15    charge:    3.1166    magn:    0.0000    constr:    0.0000
     atom:   16    charge:    1.8815    magn:   -0.0000    constr:    0.0000
     atom:   17    charge:    1.8548    magn:    0.0006    constr:    0.0000
     atom:   18    charge:    3.1239    magn:   -0.0000    constr:    0.0000
     atom:   19    charge:    1.8763    magn:    0.0000    constr:    0.0000
     atom:   20    charge:    1.8832    magn:    0.0000    constr:    0.0000
     atom:   21    charge:    1.8832    magn:    0.0000    constr:    0.0000
     atom:   22    charge:    3.1199    magn:    0.0000    constr:    0.0000
     atom:   23    charge:    1.8897    magn:   -0.0000    constr:    0.0000
     atom:   24    charge:    1.8735    magn:   -0.0001    constr:    0.0000
     atom:   25    charge:    1.8855    magn:   -0.0000    constr:    0.0000
     atom:   26    charge:    3.1144    magn:    0.0000    constr:    0.0000
     atom:   27    charge:    1.8742    magn:   -0.0001    constr:    0.0000
     atom:   28    charge:    1.8836    magn:   -0.0001    constr:    0.0000
     atom:   29    charge:    1.8817    magn:   -0.0001    constr:    0.0000
     atom:   30    charge:    3.1194    magn:    0.0000    constr:    0.0000
     atom:   31    charge:    1.8815    magn:   -0.0000    constr:    0.0000
     atom:   32    charge:    1.8819    magn:   -0.0000    constr:    0.0000
     atom:   33    charge:    1.8548    magn:    0.0006    constr:    0.0000
     atom:   34    charge:    3.1239    magn:   -0.0000    constr:    0.0000
     atom:   35    charge:    1.8763    magn:    0.0000    constr:    0.0000
     atom:   36    charge:    1.8832    magn:    0.0000    constr:    0.0000
     atom:   37    charge:    1.8832    magn:    0.0000    constr:    0.0000
     atom:   38    charge:    3.1199    magn:    0.0000    constr:    0.0000
     atom:   39    charge:    1.8823    magn:   -0.0001    constr:    0.0000
     atom:   40    charge:    1.8739    magn:   -0.0001    constr:    0.0000
     atom:   41    charge:    1.8855    magn:   -0.0000    constr:    0.0000
     atom:   42    charge:    3.1217    magn:    0.0000    constr:    0.0000
     atom:   43    charge:    1.8742    magn:   -0.0001    constr:    0.0000
     atom:   44    charge:    1.8836    magn:   -0.0001    constr:    0.0000
     atom:   45    charge:    1.8817    magn:   -0.0001    constr:    0.0000
     atom:   46    charge:    3.1194    magn:    0.0000    constr:    0.0000
     atom:   47    charge:    1.8810    magn:   -0.0000    constr:    0.0000
     atom:   48    charge:    1.8819    magn:   -0.0000    constr:    0.0000
     atom:   49    charge:    1.8915    magn:    0.0000    constr:    0.0000
     atom:   50    charge:    0.3956    magn:   -0.0000    constr:    0.0000

     total cpu time spent up to now is     2554.1 secs

     total energy              =   -3005.52881486 Ry
     Harris-Foulkes estimate   =   -3005.52881847 Ry
     estimated scf accuracy    <       0.00003590 Ry

     total magnetization       =     0.00 Bohr mag/cell
     absolute magnetization    =     0.01 Bohr mag/cell

     iteration # 11     ecut=    40.42 Ry     beta=0.10
     Davidson diagonalization with overlap
     ethr =  9.18E-09,  avg # of iterations =  1.8

     negative rho (up, down):  1.349E-02 1.349E-02
 
     Magnetic moment per site:
     atom:    1    charge:    3.1244    magn:   -0.0001    constr:    0.0000
     atom:    2    charge:    1.8809    magn:    0.0001    constr:    0.0000
     atom:    3    charge:    3.1200    magn:   -0.0000    constr:    0.0000
     atom:    4    charge:    1.8855    magn:   -0.0000    constr:    0.0000
     atom:    5    charge:    3.1144    magn:    0.0000    constr:    0.0000
     atom:    6    charge:    1.8761    magn:   -0.0001    constr:    0.0000
     atom:    7    charge:    3.1156    magn:    0.0000    constr:    0.0000
     atom:    8    charge:    1.8815    magn:   -0.0000    constr:    0.0000
     atom:    9    charge:    3.1244    magn:   -0.0001    constr:    0.0000
     atom:   10    charge:    1.8810    magn:    0.0001    constr:    0.0000
     atom:   11    charge:    3.1198    magn:    0.0000    constr:    0.0000
     atom:   12    charge:    1.8855    magn:   -0.0000    constr:    0.0000
     atom:   13    charge:    3.1144    magn:    0.0000    constr:    0.0000
     atom:   14    charge:    1.8893    magn:   -0.0000    constr:    0.0000
     atom:   15    charge:    3.1165    magn:    0.0000    constr:    0.0000
     atom:   16    charge:    1.8815    magn:   -0.0000    constr:    0.0000
     atom:   17    charge:    1.8548    magn:    0.0005    constr:    0.0000
     atom:   18    charge:    3.1239    magn:   -0.0000    constr:    0.0000
     atom:   19    charge:    1.8763    magn:    0.0000    constr:    0.0000
     atom:   20    charge:    1.8832    magn:    0.0000    constr:    0.0000
     atom:   21    charge:    1.8832    magn:    0.0000    constr:    0.0000
     atom:   22    charge:    3.1199    magn:    0.0000    constr:    0.0000
     atom:   23    charge:    1.8897    magn:   -0.0000    constr:    0.0000
     atom:   24    charge:    1.8735    magn:   -0.0001    constr:    0.0000
     atom:   25    charge:    1.8855    magn:   -0.0000    constr:    0.0000
     atom:   26    charge:    3.1144    magn:    0.0000    constr:    0.0000
     atom:   27    charge:    1.8742    magn:   -0.0001    constr:    0.0000
     atom:   28    charge:    1.8836    magn:   -0.0001    constr:    0.0000
     atom:   29    charge:    1.8817    magn:   -0.0001    constr:    0.0000
     atom:   30    charge:    3.1194    magn:    0.0000    constr:    0.0000
     atom:   31    charge:    1.8814    magn:   -0.0000    constr:    0.0000
     atom:   32    charge:    1.8818    magn:   -0.0000    constr:    0.0000
     atom:   33    charge:    1.8547    magn:    0.0005    constr:    0.0000
     atom:   34    charge:    3.1239    magn:   -0.0000    constr:    0.0000
     atom:   35    charge:    1.8763    magn:    0.0000    constr:    0.0000
     atom:   36    charge:    1.8832    magn:    0.0000    constr:    0.0000
     atom:   37    charge:    1.8832    magn:    0.0000    constr:    0.0000
     atom:   38    charge:    3.1199    magn:    0.0000    constr:    0.0000
     atom:   39    charge:    1.8823    magn:   -0.0000    constr:    0.0000
     atom:   40    charge:    1.8739    magn:   -0.0001    constr:    0.0000
     atom:   41    charge:    1.8855    magn:   -0.0000    constr:    0.0000
     atom:   42    charge:    3.1217    magn:    0.0000    constr:    0.0000
     atom:   43    charge:    1.8742    magn:   -0.0001    constr:    0.0000
     atom:   44    charge:    1.8836    magn:   -0.0001    constr:    0.0000
     atom:   45    charge:    1.8817    magn:   -0.0001    constr:    0.0000
     atom:   46    charge:    3.1194    magn:    0.0000    constr:    0.0000
     atom:   47    charge:    1.8809    magn:   -0.0000    constr:    0.0000
     atom:   48    charge:    1.8818    magn:   -0.0000    constr:    0.0000
     atom:   49    charge:    1.8915    magn:   -0.0000    constr:    0.0000
     atom:   50    charge:    0.3955    magn:   -0.0000    constr:    0.0000

     total cpu time spent up to now is     2717.9 secs

     total energy              =   -3005.52881600 Ry
     Harris-Foulkes estimate   =   -3005.52881637 Ry
     estimated scf accuracy    <       0.00000547 Ry

     total magnetization       =     0.00 Bohr mag/cell
     absolute magnetization    =     0.01 Bohr mag/cell

     iteration # 12     ecut=    40.42 Ry     beta=0.10
     Davidson diagonalization with overlap
     ethr =  1.40E-09,  avg # of iterations =  2.0

     negative rho (up, down):  1.349E-02 1.349E-02
 
     Magnetic moment per site:
     atom:    1    charge:    3.1244    magn:   -0.0001    constr:    0.0000
     atom:    2    charge:    1.8809    magn:    0.0001    constr:    0.0000
     atom:    3    charge:    3.1200    magn:   -0.0000    constr:    0.0000
     atom:    4    charge:    1.8855    magn:   -0.0000    constr:    0.0000
     atom:    5    charge:    3.1144    magn:    0.0000    constr:    0.0000
     atom:    6    charge:    1.8761    magn:   -0.0001    constr:    0.0000
     atom:    7    charge:    3.1155    magn:    0.0000    constr:    0.0000
     atom:    8    charge:    1.8815    magn:   -0.0000    constr:    0.0000
     atom:    9    charge:    3.1244    magn:   -0.0001    constr:    0.0000
     atom:   10    charge:    1.8810    magn:    0.0001    constr:    0.0000
     atom:   11    charge:    3.1198    magn:    0.0000    constr:    0.0000
     atom:   12    charge:    1.8855    magn:   -0.0000    constr:    0.0000
     atom:   13    charge:    3.1144    magn:    0.0000    constr:    0.0000
     atom:   14    charge:    1.8893    magn:   -0.0000    constr:    0.0000
     atom:   15    charge:    3.1165    magn:    0.0000    constr:    0.0000
     atom:   16    charge:    1.8815    magn:   -0.0000    constr:    0.0000
     atom:   17    charge:    1.8547    magn:    0.0005    constr:    0.0000
     atom:   18    charge:    3.1239    magn:   -0.0000    constr:    0.0000
     atom:   19    charge:    1.8763    magn:    0.0000    constr:    0.0000
     atom:   20    charge:    1.8832    magn:    0.0000    constr:    0.0000
     atom:   21    charge:    1.8832    magn:    0.0000    constr:    0.0000
     atom:   22    charge:    3.1199    magn:    0.0000    constr:    0.0000
     atom:   23    charge:    1.8897    magn:   -0.0000    constr:    0.0000
     atom:   24    charge:    1.8735    magn:   -0.0000    constr:    0.0000
     atom:   25    charge:    1.8855    magn:   -0.0000    constr:    0.0000
     atom:   26    charge:    3.1143    magn:    0.0000    constr:    0.0000
     atom:   27    charge:    1.8742    magn:   -0.0001    constr:    0.0000
     atom:   28    charge:    1.8836    magn:   -0.0001    constr:    0.0000
     atom:   29    charge:    1.8817    magn:   -0.0001    constr:    0.0000
     atom:   30    charge:    3.1193    magn:    0.0000    constr:    0.0000
     atom:   31    charge:    1.8814    magn:   -0.0000    constr:    0.0000
     atom:   32    charge:    1.8818    magn:   -0.0000    constr:    0.0000
     atom:   33    charge:    1.8547    magn:    0.0005    constr:    0.0000
     atom:   34    charge:    3.1239    magn:   -0.0000    constr:    0.0000
     atom:   35    charge:    1.8763    magn:    0.0000    constr:    0.0000
     atom:   36    charge:    1.8832    magn:    0.0000    constr:    0.0000
     atom:   37    charge:    1.8832    magn:    0.0000    constr:    0.0000
     atom:   38    charge:    3.1199    magn:    0.0000    constr:    0.0000
     atom:   39    charge:    1.8823    magn:   -0.0000    constr:    0.0000
     atom:   40    charge:    1.8739    magn:   -0.0001    constr:    0.0000
     atom:   41    charge:    1.8855    magn:   -0.0000    constr:    0.0000
     atom:   42    charge:    3.1217    magn:    0.0000    constr:    0.0000
     atom:   43    charge:    1.8742    magn:   -0.0001    constr:    0.0000
     atom:   44    charge:    1.8836    magn:   -0.0001    constr:    0.0000
     atom:   45    charge:    1.8817    magn:   -0.0001    constr:    0.0000
     atom:   46    charge:    3.1193    magn:    0.0000    constr:    0.0000
     atom:   47    charge:    1.8809    magn:   -0.0000    constr:    0.0000
     atom:   48    charge:    1.8818    magn:   -0.0000    constr:    0.0000
     atom:   49    charge:    1.8915    magn:   -0.0000    constr:    0.0000
     atom:   50    charge:    0.3954    magn:   -0.0000    constr:    0.0000

     total cpu time spent up to now is     2886.5 secs

     total energy              =   -3005.52881626 Ry
     Harris-Foulkes estimate   =   -3005.52881637 Ry
     estimated scf accuracy    <       0.00000156 Ry

     total magnetization       =     0.00 Bohr mag/cell
     absolute magnetization    =     0.01 Bohr mag/cell

     iteration # 13     ecut=    40.42 Ry     beta=0.10
     Davidson diagonalization with overlap
     ethr =  4.00E-10,  avg # of iterations =  1.6

     negative rho (up, down):  1.349E-02 1.349E-02
 
     Magnetic moment per site:
     atom:    1    charge:    3.1244    magn:   -0.0001    constr:    0.0000
     atom:    2    charge:    1.8809    magn:    0.0001    constr:    0.0000
     atom:    3    charge:    3.1200    magn:   -0.0000    constr:    0.0000
     atom:    4    charge:    1.8855    magn:    0.0000    constr:    0.0000
     atom:    5    charge:    3.1144    magn:    0.0000    constr:    0.0000
     atom:    6    charge:    1.8760    magn:   -0.0000    constr:    0.0000
     atom:    7    charge:    3.1154    magn:    0.0000    constr:    0.0000
     atom:    8    charge:    1.8815    magn:   -0.0000    constr:    0.0000
     atom:    9    charge:    3.1244    magn:   -0.0001    constr:    0.0000
     atom:   10    charge:    1.8810    magn:    0.0001    constr:    0.0000
     atom:   11    charge:    3.1198    magn:   -0.0000    constr:    0.0000
     atom:   12    charge:    1.8855    magn:    0.0000    constr:    0.0000
     atom:   13    charge:    3.1144    magn:    0.0000    constr:    0.0000
     atom:   14    charge:    1.8893    magn:   -0.0000    constr:    0.0000
     atom:   15    charge:    3.1165    magn:    0.0000    constr:    0.0000
     atom:   16    charge:    1.8815    magn:   -0.0000    constr:    0.0000
     atom:   17    charge:    1.8547    magn:    0.0004    constr:    0.0000
     atom:   18    charge:    3.1239    magn:   -0.0000    constr:    0.0000
     atom:   19    charge:    1.8763    magn:    0.0000    constr:    0.0000
     atom:   20    charge:    1.8832    magn:    0.0000    constr:    0.0000
     atom:   21    charge:    1.8832    magn:    0.0000    constr:    0.0000
     atom:   22    charge:    3.1199    magn:    0.0000    constr:    0.0000
     atom:   23    charge:    1.8897    magn:   -0.0000    constr:    0.0000
     atom:   24    charge:    1.8735    magn:   -0.0000    constr:    0.0000
     atom:   25    charge:    1.8855    magn:   -0.0000    constr:    0.0000
     atom:   26    charge:    3.1143    magn:    0.0000    constr:    0.0000
     atom:   27    charge:    1.8742    magn:   -0.0001    constr:    0.0000
     atom:   28    charge:    1.8836    magn:   -0.0001    constr:    0.0000
     atom:   29    charge:    1.8817    magn:   -0.0001    constr:    0.0000
     atom:   30    charge:    3.1193    magn:    0.0000    constr:    0.0000
     atom:   31    charge:    1.8814    magn:   -0.0000    constr:    0.0000
     atom:   32    charge:    1.8818    magn:   -0.0000    constr:    0.0000
     atom:   33    charge:    1.8547    magn:    0.0004    constr:    0.0000
     atom:   34    charge:    3.1239    magn:   -0.0000    constr:    0.0000
     atom:   35    charge:    1.8763    magn:    0.0000    constr:    0.0000
     atom:   36    charge:    1.8832    magn:    0.0000    constr:    0.0000
     atom:   37    charge:    1.8832    magn:    0.0000    constr:    0.0000
     atom:   38    charge:    3.1199    magn:    0.0000    constr:    0.0000
     atom:   39    charge:    1.8823    magn:   -0.0000    constr:    0.0000
     atom:   40    charge:    1.8739    magn:   -0.0000    constr:    0.0000
     atom:   41    charge:    1.8855    magn:   -0.0000    constr:    0.0000
     atom:   42    charge:    3.1217    magn:    0.0000    constr:    0.0000
     atom:   43    charge:    1.8742    magn:   -0.0001    constr:    0.0000
     atom:   44    charge:    1.8836    magn:   -0.0001    constr:    0.0000
     atom:   45    charge:    1.8817    magn:   -0.0001    constr:    0.0000
     atom:   46    charge:    3.1193    magn:    0.0000    constr:    0.0000
     atom:   47    charge:    1.8809    magn:   -0.0000    constr:    0.0000
     atom:   48    charge:    1.8818    magn:   -0.0000    constr:    0.0000
     atom:   49    charge:    1.8916    magn:   -0.0000    constr:    0.0000
     atom:   50    charge:    0.3954    magn:   -0.0000    constr:    0.0000

     total cpu time spent up to now is     3047.5 secs

     total energy              =   -3005.52881644 Ry
     Harris-Foulkes estimate   =   -3005.52881645 Ry
     estimated scf accuracy    <       0.00000200 Ry

     total magnetization       =     0.00 Bohr mag/cell
     absolute magnetization    =     0.00 Bohr mag/cell

     iteration # 14     ecut=    40.42 Ry     beta=0.10
     Davidson diagonalization with overlap
     ethr =  4.00E-10,  avg # of iterations =  1.0

     negative rho (up, down):  1.348E-02 1.348E-02
 
     Magnetic moment per site:
     atom:    1    charge:    3.1244    magn:   -0.0001    constr:    0.0000
     atom:    2    charge:    1.8809    magn:    0.0001    constr:    0.0000
     atom:    3    charge:    3.1200    magn:   -0.0000    constr:    0.0000
     atom:    4    charge:    1.8855    magn:    0.0000    constr:    0.0000
     atom:    5    charge:    3.1144    magn:    0.0000    constr:    0.0000
     atom:    6    charge:    1.8760    magn:   -0.0000    constr:    0.0000
     atom:    7    charge:    3.1154    magn:    0.0000    constr:    0.0000
     atom:    8    charge:    1.8815    magn:   -0.0000    constr:    0.0000
     atom:    9    charge:    3.1244    magn:   -0.0001    constr:    0.0000
     atom:   10    charge:    1.8810    magn:    0.0001    constr:    0.0000
     atom:   11    charge:    3.1198    magn:   -0.0000    constr:    0.0000
     atom:   12    charge:    1.8855    magn:    0.0000    constr:    0.0000
     atom:   13    charge:    3.1144    magn:    0.0000    constr:    0.0000
     atom:   14    charge:    1.8894    magn:   -0.0000    constr:    0.0000
     atom:   15    charge:    3.1165    magn:    0.0000    constr:    0.0000
     atom:   16    charge:    1.8815    magn:   -0.0000    constr:    0.0000
     atom:   17    charge:    1.8548    magn:    0.0003    constr:    0.0000
     atom:   18    charge:    3.1239    magn:   -0.0000    constr:    0.0000
     atom:   19    charge:    1.8763    magn:    0.0000    constr:    0.0000
     atom:   20    charge:    1.8832    magn:    0.0000    constr:    0.0000
     atom:   21    charge:    1.8832    magn:    0.0000    constr:    0.0000
     atom:   22    charge:    3.1199    magn:    0.0000    constr:    0.0000
     atom:   23    charge:    1.8897    magn:   -0.0000    constr:    0.0000
     atom:   24    charge:    1.8735    magn:   -0.0000    constr:    0.0000
     atom:   25    charge:    1.8855    magn:    0.0000    constr:    0.0000
     atom:   26    charge:    3.1144    magn:    0.0000    constr:    0.0000
     atom:   27    charge:    1.8742    magn:   -0.0000    constr:    0.0000
     atom:   28    charge:    1.8836    magn:   -0.0000    constr:    0.0000
     atom:   29    charge:    1.8817    magn:   -0.0000    constr:    0.0000
     atom:   30    charge:    3.1193    magn:    0.0000    constr:    0.0000
     atom:   31    charge:    1.8814    magn:   -0.0000    constr:    0.0000
     atom:   32    charge:    1.8818    magn:   -0.0000    constr:    0.0000
     atom:   33    charge:    1.8548    magn:    0.0003    constr:    0.0000
     atom:   34    charge:    3.1239    magn:   -0.0000    constr:    0.0000
     atom:   35    charge:    1.8763    magn:    0.0000    constr:    0.0000
     atom:   36    charge:    1.8832    magn:    0.0000    constr:    0.0000
     atom:   37    charge:    1.8832    magn:    0.0000    constr:    0.0000
     atom:   38    charge:    3.1199    magn:    0.0000    constr:    0.0000
     atom:   39    charge:    1.8823    magn:   -0.0000    constr:    0.0000
     atom:   40    charge:    1.8739    magn:   -0.0000    constr:    0.0000
     atom:   41    charge:    1.8855    magn:    0.0000    constr:    0.0000
     atom:   42    charge:    3.1217    magn:    0.0000    constr:    0.0000
     atom:   43    charge:    1.8742    magn:   -0.0000    constr:    0.0000
     atom:   44    charge:    1.8836    magn:   -0.0000    constr:    0.0000
     atom:   45    charge:    1.8817    magn:   -0.0000    constr:    0.0000
     atom:   46    charge:    3.1193    magn:    0.0000    constr:    0.0000
     atom:   47    charge:    1.8809    magn:   -0.0000    constr:    0.0000
     atom:   48    charge:    1.8818    magn:   -0.0000    constr:    0.0000
     atom:   49    charge:    1.8917    magn:   -0.0000    constr:    0.0000
     atom:   50    charge:    0.3954    magn:   -0.0000    constr:    0.0000

     total cpu time spent up to now is     3201.2 secs

     End of self-consistent calculation

 ------ SPIN UP ------------


          k = 0.0000 0.0000 0.0000 ( 34665 PWs)   bands (ev):

   -58.5423 -58.5073 -57.6316 -57.6025 -57.5959 -57.5199 -57.5082 -57.4686
   -57.3973 -57.3493 -57.3005 -57.2650 -57.1552 -57.1199 -57.0474 -57.0095
   -34.9871 -34.8112 -34.7824 -34.7486 -34.6536 -34.5967 -34.1307 -34.0871
   -34.0508 -33.9057 -33.8845 -33.8274 -33.8049 -33.7989 -33.7895 -33.7810
   -33.7780 -33.7774 -33.7375 -33.7320 -33.7304 -33.7124 -33.7002 -33.6958
   -33.6909 -33.6873 -33.6731 -33.6372 -33.5896 -33.5802 -33.5739 -33.5505
   -33.5335 -33.5258 -33.4960 -33.4822 -33.4710 -33.4704 -33.4698 -33.4216
   -33.3736 -33.3244 -33.2838 -33.2824 -33.2622 -33.2359 -33.1822 -33.1275
   -18.7058 -18.2860 -18.2089 -18.0468 -17.9476 -17.7805 -17.7656 -17.6687
   -17.6280 -17.6063 -17.4931 -17.2992 -17.2558 -17.2492 -17.1867 -17.0869
   -17.0650 -17.0446 -16.9768 -16.9354 -16.8950 -16.8596 -16.8434 -16.8210
   -16.7268 -16.6653 -16.6494 -16.5560 -16.5361 -16.3779 -16.3136 -15.8350
   -15.7747  -6.2838  -5.8595  -5.7296  -5.5336  -5.4519  -5.3509  -5.2238
    -5.2086  -5.1141  -4.9844  -4.8921  -4.8358  -4.8236  -4.7519  -4.6774
    -4.6492  -4.5810  -4.5678  -4.4540  -4.4517  -4.3912  -4.3798  -4.2855
    -4.2655  -4.2076  -4.1449  -4.1361  -4.1257  -4.1130  -4.0317  -4.0153
    -3.9474  -3.8830  -3.8723  -3.7796  -3.7682  -3.7638  -3.6588  -3.6455
    -3.6226  -3.5073  -3.4815  -3.4431  -3.3331  -3.1514  -3.1270  -3.0581
    -3.0087  -2.9948  -2.9313  -2.9077  -2.9069  -2.7907  -2.7717  -2.7707
    -2.6822  -2.6280  -2.5537  -2.4675  -2.4670  -2.3906  -2.3710  -2.3157
    -2.2692  -2.2074  -2.1705  -2.1521  -2.1102  -2.0820  -1.9638  -1.8736
    -1.8638  -1.8604  -1.8520  -1.7441  -1.6577  -1.6001  -1.5879  -1.5498
    -1.5426  -1.5322  -1.4857  -1.4022  -1.3819  -1.3513  -1.3446  -1.3108
    -1.3023  -1.1883  -1.1046  -1.0040  -0.9894  -0.9201  -0.9071  -0.8546
    -0.7874  -0.7534  -0.7035  -0.4100   0.7893   0.8867   1.1797   1.4619
     1.5696   1.6545   1.6855   1.7777   1.8101   1.8740   1.9171   1.9865
     1.9871   2.1367   2.1522   2.2186   2.2502   2.2777   2.3582   2.3838
     2.4320   2.4387   2.4749   2.4861   2.5488   2.5935   2.6383   2.6837
     2.6929   2.7184   2.7573   2.7948   2.8221   2.8338   2.8356   2.9611
     2.9699   3.0009   3.1776   3.1778   3.2012   3.2038   3.3120   3.3728
     3.3853   3.4662   3.5609   3.7125   3.8436   3.8552   4.0433   4.2352
     4.3669   4.4120   4.4707   4.6168   4.7364   4.8906   4.9275   5.0066
     5.1515   5.1678   5.1979   5.2164   5.3031   5.3086   5.3844   5.4244
     5.4432   5.4937   5.6577   5.6768   5.7947   5.8426   5.8705   5.8758
     5.9748   5.9915   6.1929   6.2556   6.3097   6.4210   6.5547   6.5780
     7.1145   7.7988   7.9626   8.0060   8.1986   8.3133   8.5508   8.7155
     8.8250   9.0649   9.2173   9.2453   9.3823   9.5340   9.6529

          k = 0.0000 0.0280 0.0000 ( 34717 PWs)   bands (ev):

   -58.5400 -58.5096 -57.6292 -57.6017 -57.5982 -57.5209 -57.5061 -57.4707
[...]
    -4.3506  -4.3160  -4.2436  -4.2055  -4.1968  -4.1780  -4.0769  -4.0721
    -4.0028  -3.9674  -3.7378  -3.7234  -3.6689  -3.6379  -3.5868  -3.5799
    -3.4856  -3.4614  -3.3912  -3.3615  -3.3537  -3.3359  -3.2548  -3.1596
    -3.1049  -3.0941  -3.0492  -3.0406  -3.0062  -2.9683  -2.9467  -2.8630
    -2.8316  -2.7729  -2.6673  -2.6409  -2.6371  -2.5618  -2.5425  -2.4984
    -2.4668  -2.4550  -2.3621  -2.3447  -2.3079  -2.2866  -2.2696  -2.2087
    -2.2020  -2.1134  -2.0560  -2.0110  -1.9902  -1.8729  -1.7853  -1.7351
    -1.7191  -1.7048  -1.6720  -1.6073  -1.4416  -1.4226  -1.3522  -1.3290
    -1.3218  -1.2701  -1.1694  -1.1382  -1.1098  -0.9991  -0.9428  -0.9251
    -0.8448  -0.8421  -0.7861  -0.7828   1.3027   1.3039   1.4246   1.4260
     1.7113   1.7115   1.8189   1.8203   1.9931   1.9940   2.0907   2.1848
     2.2438   2.2502   2.3503   2.3991   2.4138   2.4186   2.4760   2.5229
     2.5262   2.5516   2.6074   2.6097   2.7127   2.7128   2.7457   2.7598
     2.8038   2.8377   2.8596   2.9443   2.9658   2.9680   2.9959   3.0213
     3.0301   3.1089   3.1515   3.1616   3.2025   3.2242   3.2895   3.3029
     3.3554   3.3584   3.4480   3.5764   3.6294   3.6405   4.0872   4.0875
     4.2534   4.5297   4.5305   4.6051   4.6370   4.7135   4.7832   4.7937
     4.8955   4.9178   4.9574   4.9629   5.3836   5.4267   5.4409   5.5672
     5.6567   5.6737   5.7228   5.7337   5.7494   5.8004   5.8214   5.9007
     5.9482   6.0404   6.1744   6.2099   6.3039   6.3352   6.7036   6.9200
     7.1551   7.1771   7.6255   7.6310   7.9675   7.9798   8.0608   8.1516
     8.4633   8.4696   8.5756   8.7136   9.1669   9.1981   9.3124

          k =-0.0759 0.0000 0.0000 ( 34758 PWs)   bands (ev):

   -58.5424 -58.5073 -57.6312 -57.6028 -57.5958 -57.5199 -57.5081 -57.4685
   -57.3972 -57.3493 -57.3005 -57.2649 -57.1556 -57.1203 -57.0474 -57.0094
   -34.9887 -34.8112 -34.7825 -34.7454 -34.6539 -34.5969 -34.1316 -34.0955
   -34.0513 -33.8842 -33.8524 -33.8288 -33.8275 -33.8208 -33.7905 -33.7899
   -33.7812 -33.7781 -33.7376 -33.7369 -33.7125 -33.7057 -33.7003 -33.6957
   -33.6881 -33.6872 -33.6554 -33.6343 -33.5895 -33.5855 -33.5740 -33.5595
   -33.5429 -33.5251 -33.5009 -33.4820 -33.4710 -33.4691 -33.4684 -33.4219
   -33.3739 -33.3243 -33.2927 -33.2843 -33.2577 -33.2360 -33.1828 -33.1278
   -18.4773 -18.2057 -18.1547 -18.0962 -17.9920 -17.8923 -17.7085 -17.6254
   -17.6027 -17.5523 -17.4648 -17.4298 -17.2807 -17.2771 -17.2657 -17.2494
   -17.1669 -17.0827 -17.0158 -16.9908 -16.8564 -16.8436 -16.8056 -16.7034
   -16.6930 -16.6765 -16.6531 -16.6300 -16.5344 -16.3736 -16.3137 -15.8292
   -15.7722  -5.8503  -5.6688  -5.5861  -5.5003  -5.4307  -5.1754  -5.1497
    -5.0966  -5.0367  -5.0087  -4.8437  -4.7912  -4.7762  -4.7684  -4.6464
    -4.6340  -4.4947  -4.4604  -4.4003  -4.3180  -4.3125  -4.2341  -4.2332
    -4.1509  -4.1361  -4.1153  -4.0215  -4.0073  -3.9999  -3.9727  -3.8864
    -3.8448  -3.8283  -3.8192  -3.7951  -3.7322  -3.7260  -3.6831  -3.6454
    -3.5617  -3.5252  -3.5050  -3.3499  -3.2627  -3.2525  -3.2142  -3.1779
    -3.1185  -3.0312  -3.0145  -2.9615  -2.9553  -2.9273  -2.9242  -2.8700
    -2.8110  -2.7803  -2.7007  -2.6583  -2.6166  -2.5715  -2.5204  -2.4344
    -2.3846  -2.3444  -2.2876  -2.1702  -2.1690  -2.0188  -2.0011  -1.9715
    -1.9585  -1.9379  -1.8645  -1.8447  -1.7190  -1.7111  -1.7107  -1.6497
    -1.5993  -1.5466  -1.4888  -1.4690  -1.4130  -1.3973  -1.3899  -1.3690
    -1.3175  -1.3089  -1.2872  -1.1484  -1.1374  -1.1029  -0.9489  -0.9419
    -0.9277  -0.9213  -0.9088  -0.7329   0.8326   1.0474   1.1704   1.1768
     1.5512   1.6809   1.7174   1.7661   1.8095   1.8436   1.9467   2.0876
     2.1102   2.2342   2.2990   2.3040   2.3509   2.3972   2.4237   2.4276
     2.4700   2.4734   2.5888   2.6329   2.6818   2.6825   2.7340   2.7766
     2.7899   2.8103   2.9059   2.9295   2.9326   2.9340   2.9520   2.9701
     2.9957   3.0668   3.1114   3.1497   3.2032   3.2678   3.3355   3.3954
     3.4900   3.5797   3.5933   3.6174   3.7018   3.7269   3.7681   4.1154
     4.1419   4.2632   4.3366   4.4668   4.5564   4.7785   4.8423   4.8867
     4.8980   5.2453   5.3173   5.4677   5.4995   5.5595   5.5737   5.6408
     5.6685   5.7243   5.7955   5.9277   5.9709   6.0737   6.1402   6.2529
     6.2680   6.2849   6.3053   6.3081   6.3561   6.4694   6.4938   6.5682
     6.7036   6.8379   7.2613   7.4314   8.0328   8.1407   8.1789   8.5479
     8.7987   8.9010   9.0982   9.1824   9.4118   9.7711  10.0004

          k =-0.0759 0.0280 0.0000 ( 34680 PWs)   bands (ev):

   -58.5400 -58.5097 -57.6289 -57.6019 -57.5982 -57.5209 -57.5060 -57.4707
   -57.3963 -57.3502 -57.2982 -57.2671 -57.1532 -57.1227 -57.0449 -57.0120
   -34.9632 -34.8093 -34.7844 -34.7393 -34.6601 -34.6240 -34.1060 -34.0706
   -34.0280 -33.8781 -33.8477 -33.8284 -33.8238 -33.8022 -33.7929 -33.7917
   -33.7802 -33.7639 -33.7613 -33.7425 -33.7241 -33.7134 -33.7043 -33.7043
   -33.6900 -33.6835 -33.6551 -33.6326 -33.6095 -33.5664 -33.5532 -33.5491
   -33.5394 -33.5225 -33.4986 -33.4904 -33.4825 -33.4751 -33.4705 -33.4473
   -33.3680 -33.3209 -33.2904 -33.2898 -33.2598 -33.2408 -33.2100 -33.1562
   -18.4209 -18.2033 -18.1292 -18.0480 -17.9463 -17.8829 -17.6836 -17.6762
   -17.5623 -17.5548 -17.4390 -17.4050 -17.3195 -17.2360 -17.2324 -17.2165
   -17.1475 -17.0703 -17.0437 -17.0034 -16.8931 -16.8834 -16.8216 -16.7285
   -16.7207 -16.7129 -16.6585 -16.6438 -16.5726 -16.3932 -16.3551 -15.8437
   -15.7985  -5.8485  -5.5724  -5.4422  -5.4275  -5.3603  -5.0733  -5.0544
    -5.0146  -4.9129  -4.9079  -4.8871  -4.8569  -4.7607  -4.6747  -4.5889
    -4.5851  -4.5121  -4.4835  -4.4589  -4.3895  -4.3652  -4.3589  -4.2354
    -4.1977  -4.1854  -4.1682  -4.0677  -4.0401  -4.0009  -3.9588  -3.9485
    -3.8891  -3.8808  -3.7911  -3.7751  -3.7326  -3.6770  -3.6618  -3.6255
    -3.5743  -3.4759  -3.4115  -3.3280  -3.2568  -3.2138  -3.1702  -3.1401
    -3.1025  -3.0775  -3.0473  -3.0051  -2.9496  -2.9302  -2.9068  -2.8388
    -2.8157  -2.7730  -2.7384  -2.7142  -2.6083  -2.5984  -2.4501  -2.4459
    -2.3915  -2.3585  -2.3143  -2.3008  -2.2630  -2.2088  -2.1683  -2.0715
    -2.0474  -1.9582  -1.9177  -1.8694  -1.8301  -1.8139  -1.7525  -1.7033
    -1.6439  -1.6147  -1.5733  -1.5483  -1.4125  -1.3915  -1.3601  -1.3234
    -1.2893  -1.2378  -1.1913  -1.1441  -1.0988  -1.0613  -1.0521  -0.9444
    -0.9218  -0.8802  -0.8729  -0.6910   0.9019   1.1235   1.2179   1.2460
     1.6442   1.7459   1.7503   1.7782   1.8661   1.9049   1.9430   2.0796
     2.1517   2.2631   2.3002   2.3101   2.3999   2.4136   2.4389   2.4814
     2.4931   2.5093   2.6366   2.6839   2.6910   2.7088   2.7322   2.7403
     2.7552   2.8058   2.8892   2.9251   2.9363   2.9412   2.9611   3.0001
     3.0234   3.0713   3.1675   3.1826   3.1938   3.2990   3.3325   3.3905
     3.4551   3.5486   3.5655   3.5930   3.6420   3.6924   3.7446   4.1452
     4.1817   4.2578   4.3338   4.5686   4.5862   4.5954   4.8541   4.8858
     4.9226   5.2611   5.3152   5.3171   5.3769   5.4354   5.5647   5.5843
     5.6200   5.6619   5.7551   5.9620   5.9929   6.0247   6.1205   6.1558
     6.2024   6.2263   6.2386   6.3447   6.4108   6.4335   6.5109   6.6201
     6.8306   6.9677   7.3735   7.3799   7.5577   8.1452   8.2447   8.6300
     9.0302   9.1048   9.1915   9.3159   9.3434   9.3779   9.4790

          k =-0.0759 0.0560 0.0000 ( 34616 PWs)   bands (ev):

   -58.5337 -58.5161 -57.6224 -57.6047 -57.5999 -57.5229 -57.5008 -57.4759
   -57.3945 -57.3521 -57.2922 -57.2731 -57.1468 -57.1291 -57.0380 -57.0189
   -34.8931 -34.8040 -34.7896 -34.7226 -34.6974 -34.6769 -34.0356 -34.0031
   -33.9681 -33.8614 -33.8452 -33.8358 -33.8285 -33.8155 -33.8151 -33.7969
   -33.7860 -33.7710 -33.7544 -33.7440 -33.7418 -33.7251 -33.7066 -33.7014
   -33.6947 -33.6701 -33.6482 -33.6468 -33.6276 -33.5601 -33.5416 -33.5369
   -33.5220 -33.5129 -33.5018 -33.4925 -33.4914 -33.4798 -33.4763 -33.4607
   -33.3518 -33.3177 -33.3070 -33.2838 -33.2827 -33.2659 -33.2533 -33.2266
   -18.2655 -18.2000 -18.0617 -17.9427 -17.8683 -17.8321 -17.8282 -17.6229
   -17.6005 -17.4517 -17.4262 -17.3598 -17.2516 -17.2105 -17.1492 -17.1380
   -17.1054 -17.0897 -17.0747 -17.0572 -16.9829 -16.9496 -16.8785 -16.8317
   -16.7604 -16.7450 -16.6783 -16.6714 -16.6597 -16.4582 -16.4296 -15.8736
   -15.8528  -5.8460  -5.3016  -5.2370  -5.1802  -5.0493  -5.0391  -5.0327
    -4.9521  -4.8041  -4.7435  -4.6708  -4.6519  -4.6306  -4.6106  -4.5709
    -4.5444  -4.5327  -4.4619  -4.4366  -4.4070  -4.3794  -4.3486  -4.3159
    -4.3129  -4.2960  -4.2722  -4.2194  -4.1582  -4.0843  -3.9989  -3.9657
    -3.8724  -3.8444  -3.8329  -3.7979  -3.7653  -3.7124  -3.5972  -3.5383
    -3.4908  -3.4453  -3.3977  -3.3874  -3.3533  -3.3119  -3.3003  -3.2323
    -3.1906  -3.1809  -3.0131  -2.9540  -2.9505  -2.9294  -2.9207  -2.8469
    -2.8258  -2.8072  -2.7677  -2.7326  -2.6794  -2.6518  -2.6091  -2.5805
    -2.4754  -2.4532  -2.4343  -2.3567  -2.3495  -2.3184  -2.2652  -2.1613
    -2.1503  -2.1081  -2.0837  -1.9399  -1.9185  -1.8019  -1.7882  -1.7700
    -1.7629  -1.6783  -1.6454  -1.5601  -1.5119  -1.4217  -1.3553  -1.2901
    -1.2491  -1.2210  -1.1895  -1.0816  -1.0171  -0.9579  -0.9525  -0.9357
    -0.8973  -0.8789  -0.8381  -0.7691   1.1034   1.2722   1.3227   1.4588
     1.6615   1.8184   1.8349   1.8592   1.8836   1.9896   2.0692   2.1025
     2.1742   2.2390   2.3074   2.3611   2.4369   2.4429   2.4832   2.5568
     2.5656   2.6209   2.6246   2.6506   2.6685   2.7037   2.7844   2.7962
     2.8273   2.8437   2.9153   2.9369   2.9889   3.0029   3.0106   3.0356
     3.0642   3.1166   3.1300   3.1677   3.2406   3.2501   3.2534   3.3637
     3.4055   3.4509   3.5411   3.5728   3.6115   3.6481   3.7469   4.2065
     4.2277   4.2678   4.3438   4.3759   4.6111   4.7106   4.7729   4.8239
     4.9250   4.9912   5.0518   5.1225   5.3613   5.4260   5.4533   5.5826
     5.6099   5.7455   5.7854   5.8452   5.8831   5.9141   5.9252   6.0694
     6.0722   6.1240   6.2716   6.2830   6.3637   6.5172   6.6127   6.8516
     6.9560   7.1529   7.3212   7.6555   7.8199   7.9507   8.1944   8.3288
     8.5002   8.5286   8.6393   8.7822   9.0739   9.2842   9.4374

          k =-0.0759-0.0840 0.0000 ( 34556 PWs)   bands (ev):

   -58.5257 -58.5241 -57.6136 -57.6136 -57.5989 -57.5239 -57.4970 -57.4797
   -57.3934 -57.3531 -57.2867 -57.2787 -57.1380 -57.1380 -57.0293 -57.0276
   -34.7978 -34.7970 -34.7956 -34.7953 -34.7006 -34.6990 -33.9386 -33.9382
   -33.9332 -33.9202 -33.8808 -33.8382 -33.8381 -33.8270 -33.8144 -33.8083
   -33.8019 -33.7930 -33.7618 -33.7332 -33.7288 -33.7119 -33.7086 -33.6999
   -33.6946 -33.6610 -33.6446 -33.6108 -33.6008 -33.5998 -33.5966 -33.5627
   -33.5176 -33.5146 -33.5107 -33.4995 -33.4844 -33.4843 -33.3831 -33.3827
   -33.3753 -33.3651 -33.3295 -33.3292 -33.2750 -33.2737 -33.2670 -33.2600
   -18.1987 -18.0504 -18.0500 -17.9801 -17.9781 -17.7414 -17.6954 -17.6931
   -17.6911 -17.4221 -17.2939 -17.2855 -17.2836 -17.1933 -17.1864 -17.1348
   -17.0944 -17.0523 -17.0342 -17.0199 -17.0187 -17.0112 -17.0068 -16.8069
   -16.7841 -16.7733 -16.7686 -16.6801 -16.6769 -16.4914 -16.4712 -15.8850
   -15.8849  -5.8449  -5.1209  -5.1110  -5.0426  -5.0405  -4.9085  -4.9082
    -4.9068  -4.9024  -4.6551  -4.6512  -4.6459  -4.5852  -4.5217  -4.4504
    -4.4478  -4.4464  -4.4139  -4.4001  -4.3857  -4.3729  -4.3549  -4.3064
    -4.3035  -4.2774  -4.2724  -4.2560  -4.1470  -4.0975  -4.0298  -4.0109
    -3.9784  -3.9052  -3.8864  -3.8836  -3.7677  -3.6877  -3.6761  -3.6749
    -3.5530  -3.5473  -3.3929  -3.3906  -3.3819  -3.3453  -3.2750  -3.2412
    -3.1676  -3.1303  -3.0917  -3.0806  -3.0465  -3.0315  -3.0142  -2.9349
    -2.8878  -2.7962  -2.7570  -2.7147  -2.6762  -2.6401  -2.6107  -2.5893
    -2.5134  -2.4820  -2.4611  -2.4365  -2.4024  -2.3735  -2.2907  -2.2849
    -2.1696  -2.1003  -2.0758  -2.0747  -1.9586  -1.8921  -1.8079  -1.7215
    -1.6877  -1.6627  -1.6499  -1.6221  -1.3844  -1.3409  -1.3271  -1.3127
    -1.2866  -1.2372  -1.1606  -1.0542  -1.0158  -0.9821  -0.9686  -0.9330
    -0.9095  -0.8648  -0.8065  -0.7913   1.3663   1.3704   1.3819   1.3877
     1.7298   1.7305   1.8585   1.8602   2.0080   2.0663   2.0696   2.1229
     2.1947   2.2241   2.3187   2.3900   2.3992   2.4661   2.4982   2.5348
     2.5536   2.5974   2.7124   2.7162   2.7349   2.7524   2.7704   2.7959
     2.8308   2.8548   2.9145   3.0039   3.0066   3.0099   3.0321   3.0477
     3.1255   3.1455   3.1576   3.1830   3.2190   3.2463   3.2609   3.2624
     3.3217   3.3483   3.4977   3.5716   3.6515   3.6539   3.9055   3.9060
     4.2964   4.3887   4.4148   4.4730   4.5724   4.6093   4.6645   4.6685
     4.9234   4.9331   4.9420   4.9485   5.4335   5.4395   5.4579   5.6665
     5.6976   5.6999   5.7712   5.7835   5.8578   5.8631   5.9118   6.0029
     6.0544   6.0613   6.1326   6.1991   6.2611   6.3578   6.8583   7.1652
     7.4095   7.4190   7.5035   7.5641   7.7285   7.7337   7.8689   7.9576
     8.2918   8.2951   8.4623   8.6055   9.0715   9.1006   9.1981

     the Fermi energy is    -0.5246 ev

!    total energy              =   -3005.52881695 Ry
     Harris-Foulkes estimate   =   -3005.52881652 Ry
     estimated scf accuracy    <       0.00000013 Ry

     The total energy is the sum of the following terms:

     one-electron contribution =  -41002.19668881 Ry
     hartree contribution      =   20566.38646884 Ry
     xc contribution           =    -546.72332430 Ry
     ewald contribution        =   17977.02448225 Ry
     smearing contrib. (-TS)   =      -0.01975493 Ry

     total magnetization       =     0.00 Bohr mag/cell
     absolute magnetization    =     0.00 Bohr mag/cell

     convergence has been achieved in  14 iterations

     Forces acting on atoms (Ry/au):


     negative rho (up, down):  1.348E-02 1.348E-02
     atom    1 type  1   force =     0.00001866   -0.00110378   -0.10425431
     atom    2 type  2   force =     0.00006429    0.00000000    0.03820089
     atom    3 type  1   force =    -0.00012781    0.00000000   -0.02286025
     atom    4 type  2   force =    -0.00613403    0.00312009   -0.00584070
     atom    5 type  1   force =     0.00029669    0.00029371   -0.00113912
     atom    6 type  2   force =    -0.00038024    0.00000000    0.00056892
     atom    7 type  1   force =     0.00270670    0.00000000    0.02105083
     atom    8 type  2   force =     0.00125399    0.00128946   -0.00004039
     atom    9 type  1   force =     0.00001866    0.00110378   -0.10425431
     atom   10 type  2   force =     0.00007825    0.00000000    0.03428244
     atom   11 type  1   force =    -0.00011933    0.00000000    0.01125537
     atom   12 type  2   force =    -0.00613403   -0.00312009   -0.00584070
     atom   13 type  1   force =     0.00029669   -0.00029371   -0.00113912
     atom   14 type  2   force =    -0.00075249    0.00000000   -0.00059537
     atom   15 type  1   force =     0.00037558    0.00000000    0.00154871
     atom   16 type  2   force =     0.00125399   -0.00128946   -0.00004039
     atom   17 type  2   force =     0.00002852    0.00000000    0.06637399
     atom   18 type  1   force =     0.00013089    0.00000000    0.13057030
     atom   19 type  2   force =    -0.00020834    0.00000000   -0.08409434
     atom   20 type  2   force =    -0.05783501    0.00012414   -0.03627557
     atom   21 type  2   force =     0.05803732    0.00010737   -0.03632874
     atom   22 type  1   force =    -0.00005178    0.00087503    0.07791036
     atom   23 type  2   force =    -0.00015858    0.00000000    0.00150392
     atom   24 type  2   force =    -0.00018340    0.00000000   -0.03626613
     atom   25 type  2   force =     0.00594960    0.00308374   -0.00546275
     atom   26 type  1   force =    -0.00031943    0.00000000    0.00041292
     atom   27 type  2   force =     0.00035965    0.00000000    0.00138279
     atom   28 type  2   force =    -0.00013571    0.00037253   -0.00041748
     atom   29 type  2   force =    -0.00041636    0.00009609    0.00012179
     atom   30 type  1   force =    -0.00008498    0.00097106    0.00168116
     atom   31 type  2   force =    -0.00030964    0.00000000   -0.00109237
     atom   32 type  2   force =    -0.00061135    0.00079877    0.00025528
     atom   33 type  2   force =     0.00001988    0.00000000    0.06651679
     atom   34 type  1   force =     0.00015330    0.00000000    0.13031476
     atom   35 type  2   force =    -0.00011664    0.00000000   -0.08362636
     atom   36 type  2   force =    -0.05783501   -0.00012414   -0.03627557
     atom   37 type  2   force =     0.05803732   -0.00010737   -0.03632874
     atom   38 type  1   force =    -0.00005178   -0.00087503    0.07791036
     atom   39 type  2   force =    -0.00005801    0.00000000   -0.00014649
     atom   40 type  2   force =     0.00009338    0.00000000   -0.03527746
     atom   41 type  2   force =     0.00594960   -0.00308374   -0.00546275
     atom   42 type  1   force =    -0.00053544    0.00000000    0.00094463
     atom   43 type  2   force =     0.00038705    0.00000000    0.00149075
     atom   44 type  2   force =    -0.00013571   -0.00037253   -0.00041748
     atom   45 type  2   force =    -0.00041636   -0.00009609    0.00012179
     atom   46 type  1   force =    -0.00008498   -0.00097106    0.00168116
     atom   47 type  2   force =     0.00148804    0.00000000   -0.00007551
     atom   48 type  2   force =    -0.00061135   -0.00079877    0.00025528
     atom   49 type  2   force =    -0.02747188    0.00000000   -0.03672533
     atom   50 type  3   force =     0.02428162    0.00000000    0.01392254

     Total force =     0.345014     Total SCF correction =     0.001209
 !ASE

     Writing output data file calc.save
 
     init_run     :     49.93s CPU     57.27s WALL (       1 calls)
     electrons    :   2796.49s CPU   3143.73s WALL (       1 calls)
     forces       :     42.09s CPU     44.17s WALL (       1 calls)

     Called by init_run:
     wfcinit      :     42.85s CPU     49.60s WALL (       1 calls)
     potinit      :      1.28s CPU      1.51s WALL (       1 calls)

     Called by electrons:
     c_bands      :   2427.01s CPU   2712.79s WALL (      14 calls)
     sum_band     :    308.13s CPU    362.62s WALL (      14 calls)
     v_of_rho     :     15.30s CPU     18.13s WALL (      15 calls)
     newd         :     49.20s CPU     53.38s WALL (      15 calls)
     mix_rho      :      0.59s CPU      0.84s WALL (      14 calls)
     vdW_energy   :      3.37s CPU      3.78s WALL (      16 calls)
     vdW_ffts     :      3.93s CPU      4.92s WALL (      32 calls)
     vdW_v        :      1.51s CPU      1.68s WALL (      16 calls)

     Called by c_bands:
     init_us_2    :      6.60s CPU      7.15s WALL (     960 calls)
     cegterg      :   2385.55s CPU   2669.17s WALL (     448 calls)

     Called by *egterg:
     h_psi        :    904.15s CPU   1106.61s WALL (    2296 calls)
     s_psi        :    156.67s CPU    162.08s WALL (    2296 calls)
     g_psi        :      4.59s CPU      4.70s WALL (    1816 calls)
     cdiaghg      :    799.82s CPU    817.65s WALL (    2264 calls)

     Called by h_psi:
     add_vuspsi   :    158.19s CPU    163.72s WALL (    2296 calls)

     General routines
     calbec       :    232.39s CPU    238.26s WALL (    2776 calls)
     fft          :      8.12s CPU     10.06s WALL (    1272 calls)
     ffts         :      0.06s CPU      0.08s WALL (      58 calls)
     fftw         :    509.35s CPU    746.81s WALL (  761518 calls)
     interpolate  :      0.45s CPU      0.66s WALL (      58 calls)
     davcio       :      0.02s CPU      1.32s WALL (      32 calls)
 
     Parallel routines
     fft_scatter  :    249.79s CPU    393.60s WALL (  762848 calls)
 
     PWSCF        : 48m 9.51s CPU    54m 7.94s WALL

 
   This run was terminated on:  22:32:29  10Feb2018            

=------------------------------------------------------------------------------=
   JOB DONE.
=------------------------------------------------------------------------------=
