  python dir          : /home/vossj/suncat/lib/python2.7/site-packages/espresso
  espresso dir        : /home/vossj/suncat/esdld/espresso-dynpy-beef/bin
  pseudo dir          : /home/alatimer/bin/psp/esp_psp_w_gbrvRu/
  ase-espresso py git : ffa2778-git



     Program PWSCF v.5.1rc2 (svn rev. ) starts on 12Feb2018 at  7: 8:57 

     This program is part of the open-source Quantum ESPRESSO suite
     for quantum simulation of materials; please cite
         "P. Giannozzi et al., J. Phys.:Condens. Matter 21 395502 (2009);
          URL http://www.quantum-espresso.org", 
     in publications or presentations arising from this work. More details at
     http://www.quantum-espresso.org/quote

     Parallel version (MPI), running on    16 processors
     R & G space division:  proc/nbgrp/npool/nimage =      16
     Reading input from pw.inp
     Message from routine read_cards :
     DEPRECATED: no units specified in CELL_PARAMETERS card

     Current dimensions of program PWSCF are:
     Max number of different atomic species (ntypx) = 10
     Max number of k-points (npk) =  40000
     Max angular momentum in pseudopotentials (lmaxx) =  3

     **************************************************************************
     Initializing libbeef V0.1.1 with the BEEF-vdW functional.
     Citation: Wellendorff et al., PRB 85, 235149 (2012).
     **************************************************************************


     IMPORTANT: XC functional enforced from input :
     Exchange-correlation      = BEEF ( 1  4 27 13 2)
     Any further DFT definition will be discarded
     Please, verify this is what you really want


     Subspace diagonalization in iterative solution of the eigenvalue problem:
     a serial algorithm will be used

 
     Parallelization info
     --------------------
     sticks:   dense  smooth     PW     G-vecs:    dense   smooth      PW
     Min         281     112     31                68535    17318    2565
     Max         282     113     32                68545    17369    2582
     Sum        4501    1795    503              1096637   277353   41113
 
     Generating pointlists ...
     new r_m :   0.4125 (alat units)  0.7795 (a.u.) for type    1
     new r_m :   0.3995 (alat units)  0.7549 (a.u.) for type    2
     new r_m :   0.4125 (alat units)  0.7795 (a.u.) for type    3
     new r_m :   0.3995 (alat units)  0.7549 (a.u.) for type    4


     bravais-lattice index     =            0
     lattice parameter (alat)  =       1.8897  a.u.
     unit-cell volume          =    7990.9933 (a.u.)^3
     number of atoms/cell      =           54
     number of atomic types    =            4
     number of electrons       =       398.00
     number of Kohn-Sham states=          299
     kinetic-energy cutoff     =      40.4243  Ry
     charge density cutoff     =     404.2426  Ry
     convergence threshold     =      7.3E-07
     mixing beta               =       0.1000
     number of iterations used =           10  plain     mixing
     Exchange-correlation      = BEEF ( 1  4 27 13 2)
     nstep                     =           50


     celldm(1)=   1.889726  celldm(2)=   0.000000  celldm(3)=   0.000000
     celldm(4)=   0.000000  celldm(5)=   0.000000  celldm(6)=   0.000000

     crystal axes: (cart. coord. in units of alat)
               a(1) = (   6.590708   0.000000   0.000000 )  
               a(2) = (   0.000000   5.950229   0.000000 )  
               a(3) = (   0.000000   0.000000  30.195235 )  

     reciprocal axes: (cart. coord. in units 2 pi/alat)
               b(1) = (  0.151729  0.000000  0.000000 )  
               b(2) = (  0.000000  0.168061  0.000000 )  
               b(3) = (  0.000000  0.000000  0.033118 )  


     PseudoPot. # 1 for Ti read from file:
     /home/alatimer/bin/psp/esp_psp_w_gbrvRu/Ti.UPF
     MD5 check sum: 8e4df49b7f0d34bbd5052bf3f5ea0213
     Pseudo is Ultrasoft, Zval = 12.0
     Generated by new atomic code, or converted to UPF format
     Using radial grid of  851 points,  6 beta functions with: 
                l(1) =   0
                l(2) =   0
                l(3) =   1
                l(4) =   1
                l(5) =   2
                l(6) =   2
     Q(r) pseudized with  8 coefficients,  rinner =    1.000   1.000   1.000
                                                       1.000   1.000

     PseudoPot. # 2 for  O read from file:
     /home/alatimer/bin/psp/esp_psp_w_gbrvRu/O.UPF
     MD5 check sum: e057bbcf3229fb5d8c36c0c92f9568b4
     Pseudo is Ultrasoft + core correction, Zval =  6.0
     Generated using "atomic" code by A. Dal Corso  v.5.0.2 svn rev. 9415
     Using radial grid of 1095 points,  4 beta functions with: 
                l(1) =   0
                l(2) =   0
                l(3) =   1
                l(4) =   1
     Q(r) pseudized with 0 coefficients 


     PseudoPot. # 3 for  C read from file:
     /home/alatimer/bin/psp/esp_psp_w_gbrvRu/C.UPF
     MD5 check sum: ab446d787031eba755f1d5ee46644bb0
     Pseudo is Ultrasoft + core correction, Zval =  4.0
     Generated using "atomic" code by A. Dal Corso  v.5.0.2 svn rev. 9415
     Using radial grid of 1073 points,  4 beta functions with: 
                l(1) =   0
                l(2) =   0
                l(3) =   1
                l(4) =   1
     Q(r) pseudized with 0 coefficients 


     PseudoPot. # 4 for  H read from file:
     /home/alatimer/bin/psp/esp_psp_w_gbrvRu/H.UPF
     MD5 check sum: bd57da0722753ddfd9833a65b40bb853
     Pseudo is Ultrasoft, Zval =  1.0
     Generated using "atomic" code by A. Dal Corso  v.5.0.2 svn rev. 9415
     Using radial grid of  929 points,  2 beta functions with: 
                l(1) =   0
                l(2) =   0
     Q(r) pseudized with 0 coefficients 


     vdW kernel table read from file vdW_kernel_table
     MD5 check sum: 095c7af220d748ca6e76c0b4c6cfb241

     atomic species   valence    mass     pseudopotential
        Ti1           12.00    47.88000     Ti( 1.00)
        O1             6.00    15.99940      O( 1.00)
        C1             4.00    12.01100      C( 1.00)
        H1             1.00     1.00794      H( 1.00)

     Starting magnetic structure 
     atomic species   magnetization
        Ti1          0.250
        O1           0.500
        C1           0.750
        H1           0.000

     No symmetry found



   Cartesian axes

     site n.     atom                  positions (alat units)
         1           Ti1 tau(   1) = (   1.6476770   0.7437786   2.6545865  )
         2           O1  tau(   2) = (   1.6476770   2.2313359   3.9361215  )
         3           Ti1 tau(   3) = (   1.6476770   2.2313359   5.9499405  )
         4           O1  tau(   4) = (   0.3661420   0.7437786   5.9499405  )
         5           Ti1 tau(   5) = (   1.7592931   0.7557636   9.1813031  )
         6           O1  tau(   6) = (   1.6162490   2.2572048  10.5951269  )
         7           Ti1 tau(   7) = (   1.5595004   2.2680265  12.4668274  )
         8           O1  tau(   8) = (   0.3709531   0.7738127  12.6996540  )
         9           Ti1 tau(   9) = (   1.6476770   3.7188931   2.6545865  )
        10           O1  tau(  10) = (   1.6476770   5.2064503   3.9361215  )
        11           Ti1 tau(  11) = (   1.6476770   5.2064503   5.9499405  )
        12           O1  tau(  12) = (   0.3661420   3.7188931   5.9499405  )
        13           Ti1 tau(  13) = (   1.7607536   3.7112867   9.1949733  )
        14           O1  tau(  14) = (   1.6133076   5.2250699  10.5465640  )
        15           Ti1 tau(  15) = (   1.6492307   5.2431137  12.3448001  )
        16           O1  tau(  16) = (   0.3719744   3.7598389  12.7007434  )
        17           O1  tau(  17) = (   1.6476770   2.2313359   1.3730516  )
        18           Ti1 tau(  18) = (   4.9430310   2.2313359   2.6545865  )
        19           O1  tau(  19) = (   4.9430310   2.2313359   4.6684056  )
        20           O1  tau(  20) = (   6.2245660   0.7437786   2.6545865  )
        21           O1  tau(  21) = (   3.6614961   0.7437786   2.6545865  )
        22           Ti1 tau(  22) = (   4.9430310   0.7437786   5.9499405  )
        23           O1  tau(  23) = (   1.6387103   2.2391978   8.0037664  )
        24           O1  tau(  24) = (   4.9430310   2.2313359   7.2314755  )
        25           O1  tau(  25) = (   2.9292120   0.7437786   5.9499405  )
        26           Ti1 tau(  26) = (   5.0158092   2.2383949   9.3973727  )
        27           O1  tau(  27) = (   4.9391445   2.2276729  11.2675731  )
        28           O1  tau(  28) = (   6.2094020   0.7514556   9.2742047  )
        29           O1  tau(  29) = (   3.6131301   0.7515640   9.2682932  )
        30           Ti1 tau(  30) = (   4.8940083   0.8207741  12.7348365  )
        31           O1  tau(  31) = (   4.8487174   2.2703822  13.8475395  )
        32           O1  tau(  32) = (   2.8766274   0.7418004  12.6316555  )
        33           O1  tau(  33) = (   1.6476770   5.2064503   1.3730516  )
        34           Ti1 tau(  34) = (   4.9430310   5.2064503   2.6545865  )
        35           O1  tau(  35) = (   4.9430310   5.2064503   4.6684056  )
        36           O1  tau(  36) = (   6.2245660   3.7188931   2.6545865  )
        37           O1  tau(  37) = (   3.6614961   3.7188931   2.6545865  )
        38           Ti1 tau(  38) = (   4.9430310   3.7188931   5.9499405  )
        39           O1  tau(  39) = (   1.6418458   5.2133935   8.0066417  )
        40           O1  tau(  40) = (   4.9430310   5.2064503   7.2314755  )
        41           O1  tau(  41) = (   2.9292120   3.7188931   5.9499405  )
        42           Ti1 tau(  42) = (   5.0218241   5.2139137   9.3870600  )
        43           O1  tau(  43) = (   4.9399496   5.2040061  11.2598200  )
        44           O1  tau(  44) = (   6.2073000   3.7245411   9.2731052  )
        45           O1  tau(  45) = (   3.6137513   3.7232133   9.2682466  )
        46           Ti1 tau(  46) = (   4.8936935   3.8094630  12.7397413  )
        47           O1  tau(  47) = (   4.9051259   5.2510468  13.8339921  )
        48           O1  tau(  48) = (   2.8743370   3.7938830  12.6403791  )
        49           C1  tau(  49) = (   1.0587210   2.2268971  15.9066084  )
        50           O1  tau(  50) = (   1.8917182   2.2355032  14.7378010  )
        51           H1  tau(  51) = (   0.0310076   2.2200215  15.5603933  )
        52           H1  tau(  52) = (   2.8355400   2.2288152  14.9543747  )
        53           H1  tau(  53) = (   1.2478062   1.3326534  16.5039879  )
        54           H1  tau(  54) = (   1.2341453   3.1195140  16.5098874  )

     number of k points=    40  Fermi-Dirac smearing, width (Ry)=  0.0073
                       cart. coord. in units 2pi/alat
        k(    1) = (   0.0000000   0.0000000   0.0000000), wk =   0.0277778
        k(    2) = (   0.0000000   0.0280101   0.0000000), wk =   0.0555556
        k(    3) = (   0.0000000   0.0560203   0.0000000), wk =   0.0555556
        k(    4) = (   0.0000000  -0.0840304   0.0000000), wk =   0.0277778
        k(    5) = (   0.0252881   0.0000000   0.0000000), wk =   0.0555556
        k(    6) = (   0.0252881   0.0280101   0.0000000), wk =   0.0555556
        k(    7) = (   0.0252881   0.0560203   0.0000000), wk =   0.0555556
        k(    8) = (   0.0252881  -0.0840304   0.0000000), wk =   0.0555556
        k(    9) = (   0.0505763   0.0000000   0.0000000), wk =   0.0555556
        k(   10) = (   0.0505763   0.0280101   0.0000000), wk =   0.0555556
        k(   11) = (   0.0505763   0.0560203   0.0000000), wk =   0.0555556
        k(   12) = (   0.0505763  -0.0840304   0.0000000), wk =   0.0555556
        k(   13) = (  -0.0758644   0.0000000   0.0000000), wk =   0.0277778
        k(   14) = (  -0.0758644   0.0280101   0.0000000), wk =   0.0555556
        k(   15) = (  -0.0758644   0.0560203   0.0000000), wk =   0.0555556
        k(   16) = (  -0.0758644  -0.0840304   0.0000000), wk =   0.0277778
        k(   17) = (  -0.0252881   0.0280101   0.0000000), wk =   0.0555556
        k(   18) = (  -0.0252881   0.0560203   0.0000000), wk =   0.0555556
        k(   19) = (  -0.0505763   0.0280101   0.0000000), wk =   0.0555556
        k(   20) = (  -0.0505763   0.0560203   0.0000000), wk =   0.0555556
        k(   21) = (   0.0000000   0.0000000   0.0000000), wk =   0.0277778
        k(   22) = (   0.0000000   0.0280101   0.0000000), wk =   0.0555556
        k(   23) = (   0.0000000   0.0560203   0.0000000), wk =   0.0555556
        k(   24) = (   0.0000000  -0.0840304   0.0000000), wk =   0.0277778
        k(   25) = (   0.0252881   0.0000000   0.0000000), wk =   0.0555556
        k(   26) = (   0.0252881   0.0280101   0.0000000), wk =   0.0555556
        k(   27) = (   0.0252881   0.0560203   0.0000000), wk =   0.0555556
        k(   28) = (   0.0252881  -0.0840304   0.0000000), wk =   0.0555556
        k(   29) = (   0.0505763   0.0000000   0.0000000), wk =   0.0555556
        k(   30) = (   0.0505763   0.0280101   0.0000000), wk =   0.0555556
        k(   31) = (   0.0505763   0.0560203   0.0000000), wk =   0.0555556
        k(   32) = (   0.0505763  -0.0840304   0.0000000), wk =   0.0555556
        k(   33) = (  -0.0758644   0.0000000   0.0000000), wk =   0.0277778
        k(   34) = (  -0.0758644   0.0280101   0.0000000), wk =   0.0555556
        k(   35) = (  -0.0758644   0.0560203   0.0000000), wk =   0.0555556
        k(   36) = (  -0.0758644  -0.0840304   0.0000000), wk =   0.0277778
        k(   37) = (  -0.0252881   0.0280101   0.0000000), wk =   0.0555556
        k(   38) = (  -0.0252881   0.0560203   0.0000000), wk =   0.0555556
        k(   39) = (  -0.0505763   0.0280101   0.0000000), wk =   0.0555556
        k(   40) = (  -0.0505763   0.0560203   0.0000000), wk =   0.0555556

     Dense  grid:  1096637 G-vectors     FFT dimensions: (  80,  72, 375)

     Smooth grid:   277353 G-vectors     FFT dimensions: (  54,  45, 240)

     Largest allocated arrays     est. size (Mb)     dimensions
        Kohn-Sham Wavefunctions         9.95 Mb     (    2180,  299)
        NL pseudopotentials            18.89 Mb     (    2180,  568)
        Each V/rho on FFT grid          4.22 Mb     (  138240,   2)
        Each G-vector array             0.52 Mb     (   68538)
        G-vector shells                 0.25 Mb     (   33046)
     Largest temporary arrays     est. size (Mb)     dimensions
        Auxiliary wavefunctions        39.78 Mb     (    2180, 1196)
        Each subspace H/S matrix       21.83 Mb     (    1196, 1196)
        Each <psi_i|beta_j> matrix      2.59 Mb     (     568,  299)
        Arrays for rho mixing          21.09 Mb     (  138240,   10)

     Check: negative/imaginary core charge=   -0.000049    0.000000

     Initial potential from superposition of free atoms
     Check: negative starting charge=(component1):   -0.014464
     Check: negative starting charge=(component2):   -0.008704

     starting charge  381.99917, renormalised to  398.00000

     negative rho (up, down):  1.507E-02 9.069E-03


     ************************************************************************
     *
     * You are using vdW-DF for exchange-correlation in this calculation.
     * Please cite the following three references that made this development
     * possible:
     *
     *   M. Dion, H. Rydberg, E. Schroder, D. C. Langreth, and
     *   B. I. Lundqvist, Phys. Rev. Lett. 92, 246401 (2004).
     *
     *   T. Thonhauser, V. R. Cooper, S. Li, A. Puzder, P. Hyldgaard, and
     *   D. C. Langreth, Phys. Rev. B 76, 125112 (2007).
     *
     *   G. Roman-Perez and J. M. Soler, Phys. Rev. Lett. 103, 096102 (2009).
     *
     *
     * If you are using vdW-DF2, please also cite:
     *
     *   K. Lee, E. D. Murray, L. Kong, B. I. Lundqvist, and
     *   D. C. Langreth, Phys. Rev. B 82, 081101(R) (2010).
     *
     *
     * If you are calculating the stress with vdW-DF, please also cite:
     *
     *   R. Sabatini, E. Kucukbenli, B. Kolb, T. Thonhauser, and
     *   S. de Gironcoli, J. Phys.: Condens. Matter 24, 424209 (2012).
     *
     ************************************************************************

     Carrying out vdW-DF run using the following parameters:

     Nqs =      20    Nr_points =    1024   r_max =   100.000
     q_mesh =
               0.00001000     0.04494208     0.09755937     0.15916263
               0.23128650     0.31572767     0.41458969     0.53033537
               0.66584808     0.82450364     1.01025438     1.22772762
               1.48234092     1.78043706     2.12944203     2.53805004
               3.01644009     3.57652955     4.23227104     5.00000000

     Gradients computed in reciprocal space

     ************************************************************************


     Starting wfc are  300 randomized atomic wfcs

     total cpu time spent up to now is       66.6 secs

     Self-consistent Calculation

     iteration #  1     ecut=    40.42 Ry     beta=0.10
     Davidson diagonalization with overlap
     ethr =  1.00E-02,  avg # of iterations =  8.7

     negative rho (up, down):  1.478E-02 9.226E-03
 
     Magnetic moment per site:
     atom:    1    charge:    3.2611    magn:    0.7903    constr:    0.0000
     atom:    2    charge:    1.9727    magn:    0.8900    constr:    0.0000
     atom:    3    charge:    3.2595    magn:    0.7938    constr:    0.0000
     atom:    4    charge:    1.9772    magn:    0.8936    constr:    0.0000
     atom:    5    charge:    3.1900    magn:    0.7279    constr:    0.0000
     atom:    6    charge:    1.9646    magn:    0.8921    constr:    0.0000
     atom:    7    charge:    3.1751    magn:    0.7334    constr:    0.0000
     atom:    8    charge:    1.9023    magn:    0.9511    constr:    0.0000
     atom:    9    charge:    3.2611    magn:    0.7903    constr:    0.0000
     atom:   10    charge:    1.9727    magn:    0.8900    constr:    0.0000
     atom:   11    charge:    3.2595    magn:    0.7937    constr:    0.0000
     atom:   12    charge:    1.9771    magn:    0.8936    constr:    0.0000
     atom:   13    charge:    3.1893    magn:    0.7275    constr:    0.0000
     atom:   14    charge:    1.9725    magn:    0.8922    constr:    0.0000
     atom:   15    charge:    3.1765    magn:    0.7334    constr:    0.0000
     atom:   16    charge:    1.9017    magn:    0.9507    constr:    0.0000
     atom:   17    charge:    1.9583    magn:    0.8922    constr:    0.0000
     atom:   18    charge:    3.2759    magn:    0.8116    constr:    0.0000
     atom:   19    charge:    1.9717    magn:    0.8919    constr:    0.0000
     atom:   20    charge:    1.9760    magn:    0.8941    constr:    0.0000
     atom:   21    charge:    1.9760    magn:    0.8941    constr:    0.0000
     atom:   22    charge:    3.2603    magn:    0.7936    constr:    0.0000
     atom:   23    charge:    1.9769    magn:    0.8900    constr:    0.0000
     atom:   24    charge:    1.9676    magn:    0.8912    constr:    0.0000
     atom:   25    charge:    1.9772    magn:    0.8936    constr:    0.0000
     atom:   26    charge:    3.1871    magn:    0.7249    constr:    0.0000
     atom:   27    charge:    1.9463    magn:    0.9008    constr:    0.0000
     atom:   28    charge:    1.9723    magn:    0.8897    constr:    0.0000
     atom:   29    charge:    1.9685    magn:    0.8881    constr:    0.0000
     atom:   30    charge:    3.1767    magn:    0.7356    constr:    0.0000
     atom:   31    charge:    1.8772    magn:    0.9380    constr:    0.0000
     atom:   32    charge:    1.9009    magn:    0.9486    constr:    0.0000
     atom:   33    charge:    1.9583    magn:    0.8922    constr:    0.0000
     atom:   34    charge:    3.2760    magn:    0.8116    constr:    0.0000
     atom:   35    charge:    1.9717    magn:    0.8919    constr:    0.0000
     atom:   36    charge:    1.9760    magn:    0.8941    constr:    0.0000
     atom:   37    charge:    1.9760    magn:    0.8941    constr:    0.0000
     atom:   38    charge:    3.2603    magn:    0.7936    constr:    0.0000
     atom:   39    charge:    1.9763    magn:    0.8901    constr:    0.0000
     atom:   40    charge:    1.9678    magn:    0.8912    constr:    0.0000
     atom:   41    charge:    1.9772    magn:    0.8936    constr:    0.0000
     atom:   42    charge:    3.1865    magn:    0.7248    constr:    0.0000
     atom:   43    charge:    1.9485    magn:    0.9011    constr:    0.0000
     atom:   44    charge:    1.9723    magn:    0.8897    constr:    0.0000
     atom:   45    charge:    1.9678    magn:    0.8877    constr:    0.0000
     atom:   46    charge:    3.1766    magn:    0.7357    constr:    0.0000
     atom:   47    charge:    1.8918    magn:    0.9524    constr:    0.0000
     atom:   48    charge:    1.9014    magn:    0.9489    constr:    0.0000
     atom:   49    charge:    0.6000    magn:    0.4027    constr:    0.0000
     atom:   50    charge:    1.8610    magn:    0.9146    constr:    0.0000
     atom:   51    charge:    0.2830    magn:    0.0534    constr:    0.0000
     atom:   52    charge:    0.3361    magn:    0.0639    constr:    0.0000
     atom:   53    charge:    0.2762    magn:    0.0500    constr:    0.0000
     atom:   54    charge:    0.2765    magn:    0.0501    constr:    0.0000

     total cpu time spent up to now is      469.2 secs

     total energy              =   -2909.21585938 Ry
     Harris-Foulkes estimate   =   -3019.36994314 Ry
     estimated scf accuracy    <     596.48993762 Ry

     total magnetization       =    44.52 Bohr mag/cell
     absolute magnetization    =    49.86 Bohr mag/cell

     iteration #  2     ecut=    40.42 Ry     beta=0.10
     Davidson diagonalization with overlap
     ethr =  1.00E-02,  avg # of iterations =  7.5

     negative rho (up, down):  1.204E-02 7.679E-03
 
     Magnetic moment per site:
     atom:    1    charge:    3.2359    magn:    0.7924    constr:    0.0000
     atom:    2    charge:    1.9419    magn:    0.8762    constr:    0.0000
     atom:    3    charge:    3.2485    magn:    0.7818    constr:    0.0000
     atom:    4    charge:    1.9464    magn:    0.8796    constr:    0.0000
     atom:    5    charge:    3.1852    magn:    0.7176    constr:    0.0000
     atom:    6    charge:    1.9725    magn:    0.8802    constr:    0.0000
     atom:    7    charge:    3.2184    magn:    0.7242    constr:    0.0000
     atom:    8    charge:    1.9203    magn:    0.9381    constr:    0.0000
     atom:    9    charge:    3.2359    magn:    0.7924    constr:    0.0000
     atom:   10    charge:    1.9419    magn:    0.8762    constr:    0.0000
     atom:   11    charge:    3.2484    magn:    0.7817    constr:    0.0000
     atom:   12    charge:    1.9464    magn:    0.8796    constr:    0.0000
     atom:   13    charge:    3.1846    magn:    0.7174    constr:    0.0000
     atom:   14    charge:    1.9804    magn:    0.8803    constr:    0.0000
     atom:   15    charge:    3.2191    magn:    0.7244    constr:    0.0000
     atom:   16    charge:    1.9197    magn:    0.9377    constr:    0.0000
     atom:   17    charge:    1.9277    magn:    0.8783    constr:    0.0000
     atom:   18    charge:    3.2505    magn:    0.8134    constr:    0.0000
     atom:   19    charge:    1.9409    magn:    0.8780    constr:    0.0000
     atom:   20    charge:    1.9451    magn:    0.8802    constr:    0.0000
     atom:   21    charge:    1.9451    magn:    0.8802    constr:    0.0000
     atom:   22    charge:    3.2495    magn:    0.7816    constr:    0.0000
     atom:   23    charge:    1.9547    magn:    0.8769    constr:    0.0000
     atom:   24    charge:    1.9446    magn:    0.8782    constr:    0.0000
     atom:   25    charge:    1.9465    magn:    0.8796    constr:    0.0000
     atom:   26    charge:    3.1859    magn:    0.7158    constr:    0.0000
     atom:   27    charge:    1.9576    magn:    0.8887    constr:    0.0000
     atom:   28    charge:    1.9711    magn:    0.8797    constr:    0.0000
     atom:   29    charge:    1.9675    magn:    0.8783    constr:    0.0000
     atom:   30    charge:    3.2202    magn:    0.7266    constr:    0.0000
     atom:   31    charge:    1.8971    magn:    0.9252    constr:    0.0000
     atom:   32    charge:    1.9188    magn:    0.9357    constr:    0.0000
     atom:   33    charge:    1.9277    magn:    0.8783    constr:    0.0000
     atom:   34    charge:    3.2505    magn:    0.8135    constr:    0.0000
     atom:   35    charge:    1.9409    magn:    0.8780    constr:    0.0000
     atom:   36    charge:    1.9451    magn:    0.8802    constr:    0.0000
     atom:   37    charge:    1.9451    magn:    0.8802    constr:    0.0000
     atom:   38    charge:    3.2495    magn:    0.7816    constr:    0.0000
     atom:   39    charge:    1.9540    magn:    0.8769    constr:    0.0000
     atom:   40    charge:    1.9448    magn:    0.8781    constr:    0.0000
     atom:   41    charge:    1.9465    magn:    0.8796    constr:    0.0000
     atom:   42    charge:    3.1848    magn:    0.7153    constr:    0.0000
     atom:   43    charge:    1.9597    magn:    0.8891    constr:    0.0000
     atom:   44    charge:    1.9711    magn:    0.8798    constr:    0.0000
     atom:   45    charge:    1.9667    magn:    0.8779    constr:    0.0000
     atom:   46    charge:    3.2200    magn:    0.7267    constr:    0.0000
     atom:   47    charge:    1.9109    magn:    0.9393    constr:    0.0000
     atom:   48    charge:    1.9193    magn:    0.9359    constr:    0.0000
     atom:   49    charge:    0.6193    magn:    0.3983    constr:    0.0000
     atom:   50    charge:    1.8825    magn:    0.9021    constr:    0.0000
     atom:   51    charge:    0.2911    magn:    0.0530    constr:    0.0000
     atom:   52    charge:    0.3439    magn:    0.0631    constr:    0.0000
     atom:   53    charge:    0.2837    magn:    0.0495    constr:    0.0000
     atom:   54    charge:    0.2841    magn:    0.0496    constr:    0.0000

     total cpu time spent up to now is      982.9 secs

     total energy              =   -2792.22117242 Ry
     Harris-Foulkes estimate   =   -3310.32734394 Ry
     estimated scf accuracy    <   16770.40342724 Ry

     total magnetization       =    23.78 Bohr mag/cell
     absolute magnetization    =    25.48 Bohr mag/cell

     iteration #  3     ecut=    40.42 Ry     beta=0.10
     Davidson diagonalization with overlap
     ethr =  1.00E-02,  avg # of iterations =  8.3

     negative rho (up, down):  1.181E-02 7.867E-03
 
     Magnetic moment per site:
     atom:    1    charge:    3.2261    magn:    0.7708    constr:    0.0000
     atom:    2    charge:    1.9460    magn:    0.8597    constr:    0.0000
     atom:    3    charge:    3.2374    magn:    0.7605    constr:    0.0000
     atom:    4    charge:    1.9538    magn:    0.8598    constr:    0.0000
     atom:    5    charge:    3.1944    magn:    0.7120    constr:    0.0000
     atom:    6    charge:    1.9750    magn:    0.8608    constr:    0.0000
     atom:    7    charge:    3.2082    magn:    0.7052    constr:    0.0000
     atom:    8    charge:    1.9279    magn:    0.9168    constr:    0.0000
     atom:    9    charge:    3.2261    magn:    0.7708    constr:    0.0000
     atom:   10    charge:    1.9460    magn:    0.8597    constr:    0.0000
     atom:   11    charge:    3.2374    magn:    0.7604    constr:    0.0000
     atom:   12    charge:    1.9538    magn:    0.8598    constr:    0.0000
     atom:   13    charge:    3.1937    magn:    0.7117    constr:    0.0000
     atom:   14    charge:    1.9829    magn:    0.8607    constr:    0.0000
     atom:   15    charge:    3.2088    magn:    0.7051    constr:    0.0000
     atom:   16    charge:    1.9273    magn:    0.9164    constr:    0.0000
     atom:   17    charge:    1.9191    magn:    0.8749    constr:    0.0000
     atom:   18    charge:    3.2393    magn:    0.7908    constr:    0.0000
     atom:   19    charge:    1.9468    magn:    0.8593    constr:    0.0000
     atom:   20    charge:    1.9491    magn:    0.8635    constr:    0.0000
     atom:   21    charge:    1.9491    magn:    0.8635    constr:    0.0000
     atom:   22    charge:    3.2384    magn:    0.7602    constr:    0.0000
     atom:   23    charge:    1.9617    magn:    0.8579    constr:    0.0000
     atom:   24    charge:    1.9514    magn:    0.8583    constr:    0.0000
     atom:   25    charge:    1.9539    magn:    0.8598    constr:    0.0000
     atom:   26    charge:    3.1875    magn:    0.7030    constr:    0.0000
     atom:   27    charge:    1.9608    magn:    0.8688    constr:    0.0000
     atom:   28    charge:    1.9744    magn:    0.8602    constr:    0.0000
     atom:   29    charge:    1.9708    magn:    0.8589    constr:    0.0000
     atom:   30    charge:    3.2092    magn:    0.7064    constr:    0.0000
     atom:   31    charge:    1.9066    magn:    0.9043    constr:    0.0000
     atom:   32    charge:    1.9264    magn:    0.9143    constr:    0.0000
     atom:   33    charge:    1.9191    magn:    0.8749    constr:    0.0000
     atom:   34    charge:    3.2393    magn:    0.7908    constr:    0.0000
     atom:   35    charge:    1.9468    magn:    0.8593    constr:    0.0000
     atom:   36    charge:    1.9491    magn:    0.8635    constr:    0.0000
     atom:   37    charge:    1.9491    magn:    0.8635    constr:    0.0000
     atom:   38    charge:    3.2384    magn:    0.7602    constr:    0.0000
     atom:   39    charge:    1.9610    magn:    0.8579    constr:    0.0000
     atom:   40    charge:    1.9516    magn:    0.8583    constr:    0.0000
     atom:   41    charge:    1.9539    magn:    0.8598    constr:    0.0000
     atom:   42    charge:    3.1866    magn:    0.7027    constr:    0.0000
     atom:   43    charge:    1.9628    magn:    0.8692    constr:    0.0000
     atom:   44    charge:    1.9744    magn:    0.8602    constr:    0.0000
     atom:   45    charge:    1.9700    magn:    0.8585    constr:    0.0000
     atom:   46    charge:    3.2091    magn:    0.7064    constr:    0.0000
     atom:   47    charge:    1.9185    magn:    0.9183    constr:    0.0000
     atom:   48    charge:    1.9269    magn:    0.9146    constr:    0.0000
     atom:   49    charge:    0.6214    magn:    0.3896    constr:    0.0000
     atom:   50    charge:    1.8902    magn:    0.8809    constr:    0.0000
     atom:   51    charge:    0.2941    magn:    0.0507    constr:    0.0000
     atom:   52    charge:    0.3440    magn:    0.0606    constr:    0.0000
     atom:   53    charge:    0.2865    magn:    0.0473    constr:    0.0000
     atom:   54    charge:    0.2869    magn:    0.0473    constr:    0.0000

     total cpu time spent up to now is     1533.0 secs

     total energy              =   -3013.57721651 Ry
     Harris-Foulkes estimate   =   -3015.55875469 Ry
     estimated scf accuracy    <      64.44109665 Ry

     total magnetization       =    15.15 Bohr mag/cell
     absolute magnetization    =    25.33 Bohr mag/cell

     iteration #  4     ecut=    40.42 Ry     beta=0.10
     Davidson diagonalization with overlap
     ethr =  1.00E-02,  avg # of iterations =  1.0

     negative rho (up, down):  1.156E-02 8.006E-03
 
     Magnetic moment per site:
     atom:    1    charge:    3.2149    magn:    0.7433    constr:    0.0000
     atom:    2    charge:    1.9539    magn:    0.8332    constr:    0.0000
     atom:    3    charge:    3.2241    magn:    0.7337    constr:    0.0000
     atom:    4    charge:    1.9601    magn:    0.8347    constr:    0.0000
     atom:    5    charge:    3.1804    magn:    0.6817    constr:    0.0000
     atom:    6    charge:    1.9767    magn:    0.8359    constr:    0.0000
     atom:    7    charge:    3.1999    magn:    0.6811    constr:    0.0000
     atom:    8    charge:    1.9373    magn:    0.8901    constr:    0.0000
     atom:    9    charge:    3.2149    magn:    0.7433    constr:    0.0000
     atom:   10    charge:    1.9539    magn:    0.8332    constr:    0.0000
     atom:   11    charge:    3.2240    magn:    0.7336    constr:    0.0000
     atom:   12    charge:    1.9601    magn:    0.8347    constr:    0.0000
     atom:   13    charge:    3.1797    magn:    0.6815    constr:    0.0000
     atom:   14    charge:    1.9846    magn:    0.8357    constr:    0.0000
     atom:   15    charge:    3.2002    magn:    0.6806    constr:    0.0000
     atom:   16    charge:    1.9367    magn:    0.8898    constr:    0.0000
     atom:   17    charge:    1.9338    magn:    0.8444    constr:    0.0000
     atom:   18    charge:    3.2255    magn:    0.7631    constr:    0.0000
     atom:   19    charge:    1.9534    magn:    0.8338    constr:    0.0000
     atom:   20    charge:    1.9571    magn:    0.8370    constr:    0.0000
     atom:   21    charge:    1.9572    magn:    0.8370    constr:    0.0000
     atom:   22    charge:    3.2252    magn:    0.7335    constr:    0.0000
     atom:   23    charge:    1.9665    magn:    0.8325    constr:    0.0000
     atom:   24    charge:    1.9558    magn:    0.8342    constr:    0.0000
     atom:   25    charge:    1.9602    magn:    0.8347    constr:    0.0000
     atom:   26    charge:    3.1768    magn:    0.6752    constr:    0.0000
     atom:   27    charge:    1.9645    magn:    0.8437    constr:    0.0000
     atom:   28    charge:    1.9769    magn:    0.8354    constr:    0.0000
     atom:   29    charge:    1.9733    magn:    0.8340    constr:    0.0000
     atom:   30    charge:    3.1996    magn:    0.6810    constr:    0.0000
     atom:   31    charge:    1.9188    magn:    0.8780    constr:    0.0000
     atom:   32    charge:    1.9359    magn:    0.8876    constr:    0.0000
     atom:   33    charge:    1.9338    magn:    0.8444    constr:    0.0000
     atom:   34    charge:    3.2255    magn:    0.7631    constr:    0.0000
     atom:   35    charge:    1.9535    magn:    0.8338    constr:    0.0000
     atom:   36    charge:    1.9571    magn:    0.8370    constr:    0.0000
     atom:   37    charge:    1.9572    magn:    0.8370    constr:    0.0000
     atom:   38    charge:    3.2251    magn:    0.7335    constr:    0.0000
     atom:   39    charge:    1.9657    magn:    0.8326    constr:    0.0000
     atom:   40    charge:    1.9560    magn:    0.8341    constr:    0.0000
     atom:   41    charge:    1.9602    magn:    0.8347    constr:    0.0000
     atom:   42    charge:    3.1759    magn:    0.6748    constr:    0.0000
     atom:   43    charge:    1.9662    magn:    0.8440    constr:    0.0000
     atom:   44    charge:    1.9769    magn:    0.8354    constr:    0.0000
     atom:   45    charge:    1.9725    magn:    0.8337    constr:    0.0000
     atom:   46    charge:    3.1994    magn:    0.6810    constr:    0.0000
     atom:   47    charge:    1.9286    magn:    0.8918    constr:    0.0000
     atom:   48    charge:    1.9364    magn:    0.8879    constr:    0.0000
     atom:   49    charge:    0.6253    magn:    0.3787    constr:    0.0000
     atom:   50    charge:    1.9004    magn:    0.8542    constr:    0.0000
     atom:   51    charge:    0.2983    magn:    0.0479    constr:    0.0000
     atom:   52    charge:    0.3447    magn:    0.0575    constr:    0.0000
     atom:   53    charge:    0.2904    magn:    0.0445    constr:    0.0000
     atom:   54    charge:    0.2908    magn:    0.0446    constr:    0.0000

     total cpu time spent up to now is     1701.7 secs

     total energy              =   -3014.85627070 Ry
     Harris-Foulkes estimate   =   -3014.92448048 Ry
     estimated scf accuracy    <      17.62271349 Ry

     total magnetization       =     0.76 Bohr mag/cell
     absolute magnetization    =    16.85 Bohr mag/cell

     iteration #  5     ecut=    40.42 Ry     beta=0.10
     Davidson diagonalization with overlap
     ethr =  4.43E-03,  avg # of iterations =  1.1

     negative rho (up, down):  1.161E-02 8.246E-03
 
     Magnetic moment per site:
     atom:    1    charge:    3.1505    magn:    0.5500    constr:    0.0000
     atom:    2    charge:    1.9982    magn:    0.6484    constr:    0.0000
     atom:    3    charge:    3.1457    magn:    0.5462    constr:    0.0000
     atom:    4    charge:    1.9943    magn:    0.6576    constr:    0.0000
     atom:    5    charge:    3.1143    magn:    0.4818    constr:    0.0000
     atom:    6    charge:    1.9840    magn:    0.6599    constr:    0.0000
     atom:    7    charge:    3.1523    magn:    0.5176    constr:    0.0000
     atom:    8    charge:    1.9836    magn:    0.7040    constr:    0.0000
     atom:    9    charge:    3.1505    magn:    0.5500    constr:    0.0000
     atom:   10    charge:    1.9981    magn:    0.6484    constr:    0.0000
     atom:   11    charge:    3.1456    magn:    0.5461    constr:    0.0000
     atom:   12    charge:    1.9943    magn:    0.6576    constr:    0.0000
     atom:   13    charge:    3.1139    magn:    0.4820    constr:    0.0000
     atom:   14    charge:    1.9927    magn:    0.6591    constr:    0.0000
     atom:   15    charge:    3.1519    magn:    0.5140    constr:    0.0000
     atom:   16    charge:    1.9829    magn:    0.7038    constr:    0.0000
     atom:   17    charge:    1.9751    magn:    0.6698    constr:    0.0000
     atom:   18    charge:    3.1428    magn:    0.5688    constr:    0.0000
     atom:   19    charge:    1.9851    magn:    0.6571    constr:    0.0000
     atom:   20    charge:    1.9975    magn:    0.6569    constr:    0.0000
     atom:   21    charge:    1.9974    magn:    0.6569    constr:    0.0000
     atom:   22    charge:    3.1462    magn:    0.5461    constr:    0.0000
     atom:   23    charge:    1.9918    magn:    0.6560    constr:    0.0000
     atom:   24    charge:    1.9861    magn:    0.6572    constr:    0.0000
     atom:   25    charge:    1.9945    magn:    0.6576    constr:    0.0000
     atom:   26    charge:    3.1203    magn:    0.4833    constr:    0.0000
     atom:   27    charge:    1.9793    magn:    0.6667    constr:    0.0000
     atom:   28    charge:    1.9869    magn:    0.6595    constr:    0.0000
     atom:   29    charge:    1.9821    magn:    0.6576    constr:    0.0000
     atom:   30    charge:    3.1442    magn:    0.5032    constr:    0.0000
     atom:   31    charge:    1.9755    magn:    0.6956    constr:    0.0000
     atom:   32    charge:    1.9826    magn:    0.7013    constr:    0.0000
     atom:   33    charge:    1.9750    magn:    0.6699    constr:    0.0000
     atom:   34    charge:    3.1428    magn:    0.5689    constr:    0.0000
     atom:   35    charge:    1.9851    magn:    0.6571    constr:    0.0000
     atom:   36    charge:    1.9975    magn:    0.6569    constr:    0.0000
     atom:   37    charge:    1.9975    magn:    0.6569    constr:    0.0000
     atom:   38    charge:    3.1462    magn:    0.5461    constr:    0.0000
     atom:   39    charge:    1.9909    magn:    0.6561    constr:    0.0000
     atom:   40    charge:    1.9860    magn:    0.6571    constr:    0.0000
     atom:   41    charge:    1.9944    magn:    0.6576    constr:    0.0000
     atom:   42    charge:    3.1194    magn:    0.4825    constr:    0.0000
     atom:   43    charge:    1.9804    magn:    0.6670    constr:    0.0000
     atom:   44    charge:    1.9869    magn:    0.6595    constr:    0.0000
     atom:   45    charge:    1.9813    magn:    0.6573    constr:    0.0000
     atom:   46    charge:    3.1442    magn:    0.5030    constr:    0.0000
     atom:   47    charge:    1.9727    magn:    0.7084    constr:    0.0000
     atom:   48    charge:    1.9830    magn:    0.7015    constr:    0.0000
     atom:   49    charge:    0.6499    magn:    0.3019    constr:    0.0000
     atom:   50    charge:    1.9577    magn:    0.6669    constr:    0.0000
     atom:   51    charge:    0.3264    magn:    0.0288    constr:    0.0000
     atom:   52    charge:    0.3514    magn:    0.0364    constr:    0.0000
     atom:   53    charge:    0.3177    magn:    0.0258    constr:    0.0000
     atom:   54    charge:    0.3181    magn:    0.0259    constr:    0.0000

     total cpu time spent up to now is     1872.1 secs

     total energy              =   -3016.00905636 Ry
     Harris-Foulkes estimate   =   -3014.93548253 Ry
     estimated scf accuracy    <      15.68943017 Ry

     total magnetization       =     3.17 Bohr mag/cell
     absolute magnetization    =    16.94 Bohr mag/cell

     iteration #  6     ecut=    40.42 Ry     beta=0.10
     Davidson diagonalization with overlap
     ethr =  3.94E-03,  avg # of iterations =  1.4

     negative rho (up, down):  1.179E-02 8.509E-03
 
     Magnetic moment per site:
     atom:    1    charge:    3.1262    magn:    0.4691    constr:    0.0000
     atom:    2    charge:    2.0024    magn:    0.5738    constr:    0.0000
     atom:    3    charge:    3.1197    magn:    0.4653    constr:    0.0000
     atom:    4    charge:    2.0011    magn:    0.5816    constr:    0.0000
     atom:    5    charge:    3.1067    magn:    0.4055    constr:    0.0000
     atom:    6    charge:    1.9835    magn:    0.5849    constr:    0.0000
     atom:    7    charge:    3.1329    magn:    0.4436    constr:    0.0000
     atom:    8    charge:    1.9951    magn:    0.6240    constr:    0.0000
     atom:    9    charge:    3.1261    magn:    0.4692    constr:    0.0000
     atom:   10    charge:    2.0023    magn:    0.5738    constr:    0.0000
     atom:   11    charge:    3.1197    magn:    0.4652    constr:    0.0000
     atom:   12    charge:    2.0010    magn:    0.5817    constr:    0.0000
     atom:   13    charge:    3.1063    magn:    0.4060    constr:    0.0000
     atom:   14    charge:    1.9929    magn:    0.5833    constr:    0.0000
     atom:   15    charge:    3.1333    magn:    0.4391    constr:    0.0000
     atom:   16    charge:    1.9944    magn:    0.6238    constr:    0.0000
     atom:   17    charge:    1.9874    magn:    0.5909    constr:    0.0000
     atom:   18    charge:    3.1155    magn:    0.4849    constr:    0.0000
     atom:   19    charge:    1.9914    magn:    0.5804    constr:    0.0000
     atom:   20    charge:    2.0068    magn:    0.5782    constr:    0.0000
     atom:   21    charge:    2.0068    magn:    0.5783    constr:    0.0000
     atom:   22    charge:    3.1196    magn:    0.4647    constr:    0.0000
     atom:   23    charge:    1.9981    magn:    0.5803    constr:    0.0000
     atom:   24    charge:    1.9901    magn:    0.5824    constr:    0.0000
     atom:   25    charge:    2.0012    magn:    0.5817    constr:    0.0000
     atom:   26    charge:    3.1219    magn:    0.4173    constr:    0.0000
     atom:   27    charge:    1.9807    magn:    0.5919    constr:    0.0000
     atom:   28    charge:    1.9886    magn:    0.5848    constr:    0.0000
     atom:   29    charge:    1.9840    magn:    0.5836    constr:    0.0000
     atom:   30    charge:    3.1257    magn:    0.4257    constr:    0.0000
     atom:   31    charge:    1.9884    magn:    0.6191    constr:    0.0000
     atom:   32    charge:    1.9940    magn:    0.6216    constr:    0.0000
     atom:   33    charge:    1.9874    magn:    0.5911    constr:    0.0000
     atom:   34    charge:    3.1155    magn:    0.4849    constr:    0.0000
     atom:   35    charge:    1.9915    magn:    0.5804    constr:    0.0000
     atom:   36    charge:    2.0069    magn:    0.5782    constr:    0.0000
     atom:   37    charge:    2.0068    magn:    0.5783    constr:    0.0000
     atom:   38    charge:    3.1196    magn:    0.4647    constr:    0.0000
     atom:   39    charge:    1.9970    magn:    0.5806    constr:    0.0000
     atom:   40    charge:    1.9902    magn:    0.5822    constr:    0.0000
     atom:   41    charge:    2.0012    magn:    0.5817    constr:    0.0000
     atom:   42    charge:    3.1213    magn:    0.4166    constr:    0.0000
     atom:   43    charge:    1.9818    magn:    0.5922    constr:    0.0000
     atom:   44    charge:    1.9886    magn:    0.5848    constr:    0.0000
     atom:   45    charge:    1.9832    magn:    0.5833    constr:    0.0000
     atom:   46    charge:    3.1257    magn:    0.4255    constr:    0.0000
     atom:   47    charge:    1.9812    magn:    0.6320    constr:    0.0000
     atom:   48    charge:    1.9943    magn:    0.6218    constr:    0.0000
     atom:   49    charge:    0.6593    magn:    0.2692    constr:    0.0000
     atom:   50    charge:    1.9669    magn:    0.5959    constr:    0.0000
     atom:   51    charge:    0.3386    magn:    0.0207    constr:    0.0000
     atom:   52    charge:    0.3546    magn:    0.0275    constr:    0.0000
     atom:   53    charge:    0.3281    magn:    0.0192    constr:    0.0000
     atom:   54    charge:    0.3285    magn:    0.0193    constr:    0.0000

     total cpu time spent up to now is     2045.7 secs

     total energy              =   -3018.07863373 Ry
     Harris-Foulkes estimate   =   -3018.47491022 Ry
     estimated scf accuracy    <      93.38749351 Ry

     total magnetization       =    22.18 Bohr mag/cell
     absolute magnetization    =    28.85 Bohr mag/cell

     iteration #  7     ecut=    40.42 Ry     beta=0.10
     Davidson diagonalization with overlap
     ethr =  3.94E-03,  avg # of iterations =  1.8

     negative rho (up, down):  1.173E-02 8.643E-03
 
     Magnetic moment per site:
     atom:    1    charge:    3.1257    magn:    0.4568    constr:    0.0000
     atom:    2    charge:    1.9951    magn:    0.5624    constr:    0.0000
     atom:    3    charge:    3.1240    magn:    0.4528    constr:    0.0000
     atom:    4    charge:    1.9967    magn:    0.5682    constr:    0.0000
     atom:    5    charge:    3.1203    magn:    0.4015    constr:    0.0000
     atom:    6    charge:    1.9811    magn:    0.5720    constr:    0.0000
     atom:    7    charge:    3.1322    magn:    0.4287    constr:    0.0000
     atom:    8    charge:    1.9915    magn:    0.6101    constr:    0.0000
     atom:    9    charge:    3.1257    magn:    0.4569    constr:    0.0000
     atom:   10    charge:    1.9951    magn:    0.5624    constr:    0.0000
     atom:   11    charge:    3.1238    magn:    0.4526    constr:    0.0000
     atom:   12    charge:    1.9966    magn:    0.5683    constr:    0.0000
     atom:   13    charge:    3.1197    magn:    0.4019    constr:    0.0000
     atom:   14    charge:    1.9909    magn:    0.5699    constr:    0.0000
     atom:   15    charge:    3.1333    magn:    0.4243    constr:    0.0000
     atom:   16    charge:    1.9908    magn:    0.6099    constr:    0.0000
     atom:   17    charge:    1.9760    magn:    0.5809    constr:    0.0000
     atom:   18    charge:    3.1259    magn:    0.4770    constr:    0.0000
     atom:   19    charge:    1.9878    magn:    0.5661    constr:    0.0000
     atom:   20    charge:    2.0024    magn:    0.5635    constr:    0.0000
     atom:   21    charge:    2.0024    magn:    0.5635    constr:    0.0000
     atom:   22    charge:    3.1230    magn:    0.4512    constr:    0.0000
     atom:   23    charge:    1.9958    magn:    0.5668    constr:    0.0000
     atom:   24    charge:    1.9842    magn:    0.5698    constr:    0.0000
     atom:   25    charge:    1.9969    magn:    0.5682    constr:    0.0000
     atom:   26    charge:    3.1212    magn:    0.4023    constr:    0.0000
     atom:   27    charge:    1.9769    magn:    0.5789    constr:    0.0000
     atom:   28    charge:    1.9861    magn:    0.5712    constr:    0.0000
     atom:   29    charge:    1.9817    magn:    0.5706    constr:    0.0000
     atom:   30    charge:    3.1267    magn:    0.4112    constr:    0.0000
     atom:   31    charge:    1.9850    magn:    0.6057    constr:    0.0000
     atom:   32    charge:    1.9899    magn:    0.6082    constr:    0.0000
     atom:   33    charge:    1.9760    magn:    0.5811    constr:    0.0000
     atom:   34    charge:    3.1259    magn:    0.4770    constr:    0.0000
     atom:   35    charge:    1.9878    magn:    0.5661    constr:    0.0000
     atom:   36    charge:    2.0025    magn:    0.5634    constr:    0.0000
     atom:   37    charge:    2.0024    magn:    0.5635    constr:    0.0000
     atom:   38    charge:    3.1230    magn:    0.4512    constr:    0.0000
     atom:   39    charge:    1.9946    magn:    0.5670    constr:    0.0000
     atom:   40    charge:    1.9845    magn:    0.5696    constr:    0.0000
     atom:   41    charge:    1.9968    magn:    0.5683    constr:    0.0000
     atom:   42    charge:    3.1206    magn:    0.4016    constr:    0.0000
     atom:   43    charge:    1.9780    magn:    0.5793    constr:    0.0000
     atom:   44    charge:    1.9861    magn:    0.5712    constr:    0.0000
     atom:   45    charge:    1.9809    magn:    0.5703    constr:    0.0000
     atom:   46    charge:    3.1266    magn:    0.4109    constr:    0.0000
     atom:   47    charge:    1.9782    magn:    0.6186    constr:    0.0000
     atom:   48    charge:    1.9903    magn:    0.6083    constr:    0.0000
     atom:   49    charge:    0.6607    magn:    0.2632    constr:    0.0000
     atom:   50    charge:    1.9660    magn:    0.5831    constr:    0.0000
     atom:   51    charge:    0.3408    magn:    0.0194    constr:    0.0000
     atom:   52    charge:    0.3557    magn:    0.0261    constr:    0.0000
     atom:   53    charge:    0.3301    magn:    0.0182    constr:    0.0000
     atom:   54    charge:    0.3305    magn:    0.0183    constr:    0.0000

     total cpu time spent up to now is     2224.9 secs

     total energy              =   -3018.05313110 Ry
     Harris-Foulkes estimate   =   -3018.79463242 Ry
     estimated scf accuracy    <      31.40907904 Ry

     total magnetization       =    17.00 Bohr mag/cell
     absolute magnetization    =    23.07 Bohr mag/cell

     iteration #  8     ecut=    40.42 Ry     beta=0.10
     Davidson diagonalization with overlap
     ethr =  3.94E-03,  avg # of iterations =  2.0

     negative rho (up, down):  1.157E-02 8.751E-03
 
     Magnetic moment per site:
     atom:    1    charge:    3.1280    magn:    0.4509    constr:    0.0000
     atom:    2    charge:    1.9910    magn:    0.5573    constr:    0.0000
     atom:    3    charge:    3.1266    magn:    0.4471    constr:    0.0000
     atom:    4    charge:    1.9938    magn:    0.5620    constr:    0.0000
     atom:    5    charge:    3.1207    magn:    0.3946    constr:    0.0000
     atom:    6    charge:    1.9794    magn:    0.5656    constr:    0.0000
     atom:    7    charge:    3.1322    magn:    0.4216    constr:    0.0000
     atom:    8    charge:    1.9890    magn:    0.6032    constr:    0.0000
     atom:    9    charge:    3.1279    magn:    0.4509    constr:    0.0000
     atom:   10    charge:    1.9909    magn:    0.5573    constr:    0.0000
     atom:   11    charge:    3.1265    magn:    0.4469    constr:    0.0000
     atom:   12    charge:    1.9938    magn:    0.5620    constr:    0.0000
     atom:   13    charge:    3.1200    magn:    0.3949    constr:    0.0000
     atom:   14    charge:    1.9893    magn:    0.5634    constr:    0.0000
     atom:   15    charge:    3.1338    magn:    0.4173    constr:    0.0000
     atom:   16    charge:    1.9883    magn:    0.6030    constr:    0.0000
     atom:   17    charge:    1.9671    magn:    0.5803    constr:    0.0000
     atom:   18    charge:    3.1339    magn:    0.4758    constr:    0.0000
     atom:   19    charge:    1.9848    magn:    0.5600    constr:    0.0000
     atom:   20    charge:    1.9985    magn:    0.5578    constr:    0.0000
     atom:   21    charge:    1.9985    magn:    0.5579    constr:    0.0000
     atom:   22    charge:    3.1256    magn:    0.4452    constr:    0.0000
     atom:   23    charge:    1.9937    magn:    0.5604    constr:    0.0000
     atom:   24    charge:    1.9810    magn:    0.5640    constr:    0.0000
     atom:   25    charge:    1.9940    magn:    0.5620    constr:    0.0000
     atom:   26    charge:    3.1254    magn:    0.3985    constr:    0.0000
     atom:   27    charge:    1.9750    magn:    0.5727    constr:    0.0000
     atom:   28    charge:    1.9845    magn:    0.5651    constr:    0.0000
     atom:   29    charge:    1.9802    magn:    0.5645    constr:    0.0000
     atom:   30    charge:    3.1281    magn:    0.4047    constr:    0.0000
     atom:   31    charge:    1.9827    magn:    0.5990    constr:    0.0000
     atom:   32    charge:    1.9876    magn:    0.6011    constr:    0.0000
     atom:   33    charge:    1.9671    magn:    0.5804    constr:    0.0000
     atom:   34    charge:    3.1339    magn:    0.4758    constr:    0.0000
     atom:   35    charge:    1.9848    magn:    0.5600    constr:    0.0000
     atom:   36    charge:    1.9986    magn:    0.5577    constr:    0.0000
     atom:   37    charge:    1.9985    magn:    0.5579    constr:    0.0000
     atom:   38    charge:    3.1256    magn:    0.4452    constr:    0.0000
     atom:   39    charge:    1.9925    magn:    0.5607    constr:    0.0000
     atom:   40    charge:    1.9813    magn:    0.5637    constr:    0.0000
     atom:   41    charge:    1.9939    magn:    0.5620    constr:    0.0000
     atom:   42    charge:    3.1249    magn:    0.3979    constr:    0.0000
     atom:   43    charge:    1.9762    magn:    0.5731    constr:    0.0000
     atom:   44    charge:    1.9845    magn:    0.5651    constr:    0.0000
     atom:   45    charge:    1.9794    magn:    0.5642    constr:    0.0000
     atom:   46    charge:    3.1280    magn:    0.4045    constr:    0.0000
     atom:   47    charge:    1.9764    magn:    0.6118    constr:    0.0000
     atom:   48    charge:    1.9880    magn:    0.6013    constr:    0.0000
     atom:   49    charge:    0.6606    magn:    0.2602    constr:    0.0000
     atom:   50    charge:    1.9655    magn:    0.5763    constr:    0.0000
     atom:   51    charge:    0.3418    magn:    0.0189    constr:    0.0000
     atom:   52    charge:    0.3563    magn:    0.0255    constr:    0.0000
     atom:   53    charge:    0.3312    magn:    0.0177    constr:    0.0000
     atom:   54    charge:    0.3316    magn:    0.0178    constr:    0.0000

     total cpu time spent up to now is     2406.1 secs

     total energy              =   -3018.17915252 Ry
     Harris-Foulkes estimate   =   -3018.31662870 Ry
     estimated scf accuracy    <       8.77588409 Ry

     total magnetization       =     9.56 Bohr mag/cell
     absolute magnetization    =    17.83 Bohr mag/cell

     iteration #  9     ecut=    40.42 Ry     beta=0.10
     Davidson diagonalization with overlap
     ethr =  2.20E-03,  avg # of iterations =  4.2

     negative rho (up, down):  1.152E-02 8.890E-03
 
     Magnetic moment per site:
     atom:    1    charge:    3.1387    magn:    0.3679    constr:    0.0000
     atom:    2    charge:    1.9694    magn:    0.4828    constr:    0.0000
     atom:    3    charge:    3.1332    magn:    0.3672    constr:    0.0000
     atom:    4    charge:    1.9755    magn:    0.4839    constr:    0.0000
     atom:    5    charge:    3.1286    magn:    0.3183    constr:    0.0000
     atom:    6    charge:    1.9676    magn:    0.4870    constr:    0.0000
     atom:    7    charge:    3.1276    magn:    0.3397    constr:    0.0000
     atom:    8    charge:    1.9743    magn:    0.5188    constr:    0.0000
     atom:    9    charge:    3.1388    magn:    0.3680    constr:    0.0000
     atom:   10    charge:    1.9694    magn:    0.4829    constr:    0.0000
     atom:   11    charge:    3.1330    magn:    0.3669    constr:    0.0000
     atom:   12    charge:    1.9755    magn:    0.4839    constr:    0.0000
     atom:   13    charge:    3.1278    magn:    0.3186    constr:    0.0000
     atom:   14    charge:    1.9786    magn:    0.4839    constr:    0.0000
     atom:   15    charge:    3.1322    magn:    0.3359    constr:    0.0000
     atom:   16    charge:    1.9736    magn:    0.5187    constr:    0.0000
     atom:   17    charge:    1.9348    magn:    0.5223    constr:    0.0000
     atom:   18    charge:    3.1554    magn:    0.4096    constr:    0.0000
     atom:   19    charge:    1.9646    magn:    0.4832    constr:    0.0000
     atom:   20    charge:    1.9726    magn:    0.4836    constr:    0.0000
     atom:   21    charge:    1.9726    magn:    0.4836    constr:    0.0000
     atom:   22    charge:    3.1313    magn:    0.3641    constr:    0.0000
     atom:   23    charge:    1.9804    magn:    0.4822    constr:    0.0000
     atom:   24    charge:    1.9598    magn:    0.4889    constr:    0.0000
     atom:   25    charge:    1.9757    magn:    0.4840    constr:    0.0000
     atom:   26    charge:    3.1341    magn:    0.3291    constr:    0.0000
     atom:   27    charge:    1.9616    magn:    0.4953    constr:    0.0000
     atom:   28    charge:    1.9730    magn:    0.4878    constr:    0.0000
     atom:   29    charge:    1.9680    magn:    0.4874    constr:    0.0000
     atom:   30    charge:    3.1308    magn:    0.3251    constr:    0.0000
     atom:   31    charge:    1.9718    magn:    0.5161    constr:    0.0000
     atom:   32    charge:    1.9738    magn:    0.5165    constr:    0.0000
     atom:   33    charge:    1.9347    magn:    0.5224    constr:    0.0000
     atom:   34    charge:    3.1552    magn:    0.4096    constr:    0.0000
     atom:   35    charge:    1.9647    magn:    0.4832    constr:    0.0000
     atom:   36    charge:    1.9726    magn:    0.4835    constr:    0.0000
     atom:   37    charge:    1.9726    magn:    0.4836    constr:    0.0000
     atom:   38    charge:    3.1313    magn:    0.3641    constr:    0.0000
     atom:   39    charge:    1.9790    magn:    0.4825    constr:    0.0000
     atom:   40    charge:    1.9603    magn:    0.4885    constr:    0.0000
     atom:   41    charge:    1.9756    magn:    0.4840    constr:    0.0000
     atom:   42    charge:    3.1339    magn:    0.3286    constr:    0.0000
     atom:   43    charge:    1.9632    magn:    0.4957    constr:    0.0000
     atom:   44    charge:    1.9730    magn:    0.4879    constr:    0.0000
     atom:   45    charge:    1.9672    magn:    0.4872    constr:    0.0000
     atom:   46    charge:    3.1306    magn:    0.3248    constr:    0.0000
     atom:   47    charge:    1.9679    magn:    0.5282    constr:    0.0000
     atom:   48    charge:    1.9741    magn:    0.5167    constr:    0.0000
     atom:   49    charge:    0.6627    magn:    0.2233    constr:    0.0000
     atom:   50    charge:    1.9703    magn:    0.4908    constr:    0.0000
     atom:   51    charge:    0.3537    magn:    0.0122    constr:    0.0000
     atom:   52    charge:    0.3632    magn:    0.0175    constr:    0.0000
     atom:   53    charge:    0.3452    magn:    0.0114    constr:    0.0000
     atom:   54    charge:    0.3457    magn:    0.0115    constr:    0.0000

     total cpu time spent up to now is     2619.7 secs

     total energy              =   -3018.73657918 Ry
     Harris-Foulkes estimate   =   -3018.22700443 Ry
     estimated scf accuracy    <       4.38267821 Ry

     total magnetization       =     6.16 Bohr mag/cell
     absolute magnetization    =    15.69 Bohr mag/cell

     iteration # 10     ecut=    40.42 Ry     beta=0.10
     Davidson diagonalization with overlap
     ethr =  1.10E-03,  avg # of iterations =  6.1

     negative rho (up, down):  1.291E-02 9.837E-03
 
     Magnetic moment per site:
     atom:    1    charge:    3.1063    magn:    0.0766    constr:    0.0000
     atom:    2    charge:    1.9535    magn:    0.2082    constr:    0.0000
     atom:    3    charge:    3.0960    magn:    0.0819    constr:    0.0000
     atom:    4    charge:    1.9619    magn:    0.2049    constr:    0.0000
     atom:    5    charge:    3.1081    magn:    0.0413    constr:    0.0000
     atom:    6    charge:    1.9504    magn:    0.2090    constr:    0.0000
     atom:    7    charge:    3.0917    magn:    0.0638    constr:    0.0000
     atom:    8    charge:    1.9696    magn:    0.2229    constr:    0.0000
     atom:    9    charge:    3.1064    magn:    0.0767    constr:    0.0000
     atom:   10    charge:    1.9535    magn:    0.2083    constr:    0.0000
     atom:   11    charge:    3.0959    magn:    0.0815    constr:    0.0000
     atom:   12    charge:    1.9619    magn:    0.2050    constr:    0.0000
     atom:   13    charge:    3.1070    magn:    0.0416    constr:    0.0000
     atom:   14    charge:    1.9627    magn:    0.2039    constr:    0.0000
     atom:   15    charge:    3.1006    magn:    0.0598    constr:    0.0000
     atom:   16    charge:    1.9689    magn:    0.2230    constr:    0.0000
     atom:   17    charge:    1.9138    magn:    0.2759    constr:    0.0000
     atom:   18    charge:    3.1301    magn:    0.1412    constr:    0.0000
     atom:   19    charge:    1.9499    magn:    0.2050    constr:    0.0000
     atom:   20    charge:    1.9576    magn:    0.2056    constr:    0.0000
     atom:   21    charge:    1.9576    magn:    0.2057    constr:    0.0000
     atom:   22    charge:    3.0952    magn:    0.0767    constr:    0.0000
     atom:   23    charge:    1.9698    magn:    0.2037    constr:    0.0000
     atom:   24    charge:    1.9417    magn:    0.2147    constr:    0.0000
     atom:   25    charge:    1.9621    magn:    0.2051    constr:    0.0000
     atom:   26    charge:    3.1151    magn:    0.0655    constr:    0.0000
     atom:   27    charge:    1.9458    magn:    0.2183    constr:    0.0000
     atom:   28    charge:    1.9591    magn:    0.2116    constr:    0.0000
     atom:   29    charge:    1.9533    magn:    0.2119    constr:    0.0000
     atom:   30    charge:    3.1019    magn:    0.0476    constr:    0.0000
     atom:   31    charge:    1.9796    magn:    0.2269    constr:    0.0000
     atom:   32    charge:    1.9696    magn:    0.2206    constr:    0.0000
     atom:   33    charge:    1.9138    magn:    0.2760    constr:    0.0000
     atom:   34    charge:    3.1301    magn:    0.1412    constr:    0.0000
     atom:   35    charge:    1.9499    magn:    0.2049    constr:    0.0000
     atom:   36    charge:    1.9576    magn:    0.2055    constr:    0.0000
     atom:   37    charge:    1.9576    magn:    0.2057    constr:    0.0000
     atom:   38    charge:    3.0952    magn:    0.0767    constr:    0.0000
     atom:   39    charge:    1.9679    magn:    0.2043    constr:    0.0000
     atom:   40    charge:    1.9423    magn:    0.2140    constr:    0.0000
     atom:   41    charge:    1.9621    magn:    0.2052    constr:    0.0000
     atom:   42    charge:    3.1153    magn:    0.0651    constr:    0.0000
     atom:   43    charge:    1.9474    magn:    0.2188    constr:    0.0000
     atom:   44    charge:    1.9592    magn:    0.2116    constr:    0.0000
     atom:   45    charge:    1.9526    magn:    0.2118    constr:    0.0000
     atom:   46    charge:    3.1017    magn:    0.0472    constr:    0.0000
     atom:   47    charge:    1.9733    magn:    0.2367    constr:    0.0000
     atom:   48    charge:    1.9700    magn:    0.2208    constr:    0.0000
     atom:   49    charge:    0.6815    magn:    0.0973    constr:    0.0000
     atom:   50    charge:    2.0033    magn:    0.1963    constr:    0.0000
     atom:   51    charge:    0.3962    magn:   -0.0135    constr:    0.0000
     atom:   52    charge:    0.3829    magn:   -0.0119    constr:    0.0000
     atom:   53    charge:    0.3908    magn:   -0.0129    constr:    0.0000
     atom:   54    charge:    0.3914    magn:   -0.0129    constr:    0.0000

     total cpu time spent up to now is     2865.0 secs

     total energy              =   -3021.08213993 Ry
     Harris-Foulkes estimate   =   -3019.12785718 Ry
     estimated scf accuracy    <       2.27161870 Ry

     total magnetization       =     0.17 Bohr mag/cell
     absolute magnetization    =    12.48 Bohr mag/cell

     iteration # 11     ecut=    40.42 Ry     beta=0.10
     Davidson diagonalization with overlap
     ethr =  5.71E-04,  avg # of iterations =  7.5

     negative rho (up, down):  1.392E-02 1.069E-02
 
     Magnetic moment per site:
     atom:    1    charge:    3.1179    magn:    0.0065    constr:    0.0000
     atom:    2    charge:    1.9317    magn:    0.1351    constr:    0.0000
     atom:    3    charge:    3.1170    magn:    0.0120    constr:    0.0000
     atom:    4    charge:    1.9415    magn:    0.1266    constr:    0.0000
     atom:    5    charge:    3.1198    magn:   -0.0153    constr:    0.0000
     atom:    6    charge:    1.9411    magn:    0.1304    constr:    0.0000
     atom:    7    charge:    3.1097    magn:   -0.0081    constr:    0.0000
     atom:    8    charge:    1.9430    magn:    0.1389    constr:    0.0000
     atom:    9    charge:    3.1180    magn:    0.0066    constr:    0.0000
     atom:   10    charge:    1.9318    magn:    0.1352    constr:    0.0000
     atom:   11    charge:    3.1170    magn:    0.0115    constr:    0.0000
     atom:   12    charge:    1.9415    magn:    0.1267    constr:    0.0000
     atom:   13    charge:    3.1188    magn:   -0.0153    constr:    0.0000
     atom:   14    charge:    1.9528    magn:    0.1250    constr:    0.0000
     atom:   15    charge:    3.1163    magn:   -0.0105    constr:    0.0000
     atom:   16    charge:    1.9424    magn:    0.1390    constr:    0.0000
     atom:   17    charge:    1.8971    magn:    0.2216    constr:    0.0000
     atom:   18    charge:    3.1434    magn:    0.0813    constr:    0.0000
     atom:   19    charge:    1.9324    magn:    0.1271    constr:    0.0000
     atom:   20    charge:    1.9393    magn:    0.1298    constr:    0.0000
     atom:   21    charge:    1.9393    magn:    0.1298    constr:    0.0000
     atom:   22    charge:    3.1186    magn:    0.0061    constr:    0.0000
     atom:   23    charge:    1.9532    magn:    0.1257    constr:    0.0000
     atom:   24    charge:    1.9233    magn:    0.1379    constr:    0.0000
     atom:   25    charge:    1.9417    magn:    0.1268    constr:    0.0000
     atom:   26    charge:    3.1202    magn:    0.0076    constr:    0.0000
     atom:   27    charge:    1.9342    magn:    0.1400    constr:    0.0000
     atom:   28    charge:    1.9498    magn:    0.1335    constr:    0.0000
     atom:   29    charge:    1.9447    magn:    0.1342    constr:    0.0000
     atom:   30    charge:    3.1126    magn:   -0.0190    constr:    0.0000
     atom:   31    charge:    1.9556    magn:    0.1433    constr:    0.0000
     atom:   32    charge:    1.9420    magn:    0.1367    constr:    0.0000
     atom:   33    charge:    1.8971    magn:    0.2216    constr:    0.0000
     atom:   34    charge:    3.1435    magn:    0.0812    constr:    0.0000
     atom:   35    charge:    1.9323    magn:    0.1270    constr:    0.0000
     atom:   36    charge:    1.9393    magn:    0.1297    constr:    0.0000
     atom:   37    charge:    1.9393    magn:    0.1298    constr:    0.0000
     atom:   38    charge:    3.1186    magn:    0.0062    constr:    0.0000
     atom:   39    charge:    1.9512    magn:    0.1264    constr:    0.0000
     atom:   40    charge:    1.9238    magn:    0.1372    constr:    0.0000
     atom:   41    charge:    1.9417    magn:    0.1268    constr:    0.0000
     atom:   42    charge:    3.1202    magn:    0.0076    constr:    0.0000
     atom:   43    charge:    1.9359    magn:    0.1405    constr:    0.0000
     atom:   44    charge:    1.9498    magn:    0.1336    constr:    0.0000
     atom:   45    charge:    1.9439    magn:    0.1342    constr:    0.0000
     atom:   46    charge:    3.1124    magn:   -0.0195    constr:    0.0000
     atom:   47    charge:    1.9547    magn:    0.1516    constr:    0.0000
     atom:   48    charge:    1.9425    magn:    0.1369    constr:    0.0000
     atom:   49    charge:    0.6744    magn:    0.0599    constr:    0.0000
     atom:   50    charge:    1.9866    magn:    0.1094    constr:    0.0000
     atom:   51    charge:    0.4053    magn:   -0.0175    constr:    0.0000
     atom:   52    charge:    0.3927    magn:   -0.0166    constr:    0.0000
     atom:   53    charge:    0.4036    magn:   -0.0169    constr:    0.0000
     atom:   54    charge:    0.4043    magn:   -0.0169    constr:    0.0000

     total cpu time spent up to now is     3137.0 secs

     total energy              =   -3021.39092576 Ry
     Harris-Foulkes estimate   =   -3021.29123790 Ry
     estimated scf accuracy    <       1.20865209 Ry

     total magnetization       =     0.19 Bohr mag/cell
     absolute magnetization    =     8.05 Bohr mag/cell

     iteration # 12     ecut=    40.42 Ry     beta=0.10
     Davidson diagonalization with overlap
     ethr =  3.04E-04,  avg # of iterations =  2.3

     negative rho (up, down):  1.410E-02 1.109E-02
 
     Magnetic moment per site:
     atom:    1    charge:    3.1143    magn:   -0.0072    constr:    0.0000
     atom:    2    charge:    1.9357    magn:    0.1151    constr:    0.0000
     atom:    3    charge:    3.1143    magn:   -0.0014    constr:    0.0000
     atom:    4    charge:    1.9452    magn:    0.1058    constr:    0.0000
     atom:    5    charge:    3.1170    magn:   -0.0241    constr:    0.0000
     atom:    6    charge:    1.9434    magn:    0.1099    constr:    0.0000
     atom:    7    charge:    3.1100    magn:   -0.0200    constr:    0.0000
     atom:    8    charge:    1.9444    magn:    0.1169    constr:    0.0000
     atom:    9    charge:    3.1143    magn:   -0.0071    constr:    0.0000
     atom:   10    charge:    1.9357    magn:    0.1151    constr:    0.0000
     atom:   11    charge:    3.1143    magn:   -0.0018    constr:    0.0000
     atom:   12    charge:    1.9452    magn:    0.1059    constr:    0.0000
     atom:   13    charge:    3.1160    magn:   -0.0242    constr:    0.0000
     atom:   14    charge:    1.9546    magn:    0.1046    constr:    0.0000
     atom:   15    charge:    3.1153    magn:   -0.0222    constr:    0.0000
     atom:   16    charge:    1.9438    magn:    0.1169    constr:    0.0000
     atom:   17    charge:    1.9078    magn:    0.2048    constr:    0.0000
     atom:   18    charge:    3.1357    magn:    0.0670    constr:    0.0000
     atom:   19    charge:    1.9362    magn:    0.1062    constr:    0.0000
     atom:   20    charge:    1.9445    magn:    0.1087    constr:    0.0000
     atom:   21    charge:    1.9445    magn:    0.1087    constr:    0.0000
     atom:   22    charge:    3.1155    magn:   -0.0071    constr:    0.0000
     atom:   23    charge:    1.9546    magn:    0.1053    constr:    0.0000
     atom:   24    charge:    1.9296    magn:    0.1165    constr:    0.0000
     atom:   25    charge:    1.9454    magn:    0.1060    constr:    0.0000
     atom:   26    charge:    3.1145    magn:   -0.0060    constr:    0.0000
     atom:   27    charge:    1.9366    magn:    0.1188    constr:    0.0000
     atom:   28    charge:    1.9511    magn:    0.1126    constr:    0.0000
     atom:   29    charge:    1.9468    magn:    0.1133    constr:    0.0000
     atom:   30    charge:    3.1103    magn:   -0.0308    constr:    0.0000
     atom:   31    charge:    1.9548    magn:    0.1213    constr:    0.0000
     atom:   32    charge:    1.9429    magn:    0.1148    constr:    0.0000
     atom:   33    charge:    1.9078    magn:    0.2048    constr:    0.0000
     atom:   34    charge:    3.1358    magn:    0.0670    constr:    0.0000
     atom:   35    charge:    1.9362    magn:    0.1061    constr:    0.0000
     atom:   36    charge:    1.9445    magn:    0.1085    constr:    0.0000
     atom:   37    charge:    1.9445    magn:    0.1087    constr:    0.0000
     atom:   38    charge:    3.1155    magn:   -0.0071    constr:    0.0000
     atom:   39    charge:    1.9527    magn:    0.1059    constr:    0.0000
     atom:   40    charge:    1.9300    magn:    0.1159    constr:    0.0000
     atom:   41    charge:    1.9454    magn:    0.1061    constr:    0.0000
     atom:   42    charge:    3.1144    magn:   -0.0061    constr:    0.0000
     atom:   43    charge:    1.9382    magn:    0.1193    constr:    0.0000
     atom:   44    charge:    1.9511    magn:    0.1127    constr:    0.0000
     atom:   45    charge:    1.9460    magn:    0.1133    constr:    0.0000
     atom:   46    charge:    3.1102    magn:   -0.0313    constr:    0.0000
     atom:   47    charge:    1.9537    magn:    0.1291    constr:    0.0000
     atom:   48    charge:    1.9434    magn:    0.1150    constr:    0.0000
     atom:   49    charge:    0.6715    magn:    0.0505    constr:    0.0000
     atom:   50    charge:    1.9797    magn:    0.0876    constr:    0.0000
     atom:   51    charge:    0.4068    magn:   -0.0177    constr:    0.0000
     atom:   52    charge:    0.3954    magn:   -0.0168    constr:    0.0000
     atom:   53    charge:    0.4061    magn:   -0.0172    constr:    0.0000
     atom:   54    charge:    0.4067    magn:   -0.0172    constr:    0.0000

     total cpu time spent up to now is     3322.8 secs

     total energy              =   -3021.47070160 Ry
     Harris-Foulkes estimate   =   -3021.54237716 Ry
     estimated scf accuracy    <       1.23820315 Ry

     total magnetization       =     0.02 Bohr mag/cell
     absolute magnetization    =     5.73 Bohr mag/cell

     iteration # 13     ecut=    40.42 Ry     beta=0.10
     Davidson diagonalization with overlap
     ethr =  3.04E-04,  avg # of iterations =  1.0

     negative rho (up, down):  1.453E-02 1.174E-02
 
     Magnetic moment per site:
     atom:    1    charge:    3.1167    magn:   -0.0240    constr:    0.0000
     atom:    2    charge:    1.9407    magn:    0.0812    constr:    0.0000
     atom:    3    charge:    3.1182    magn:   -0.0171    constr:    0.0000
     atom:    4    charge:    1.9478    magn:    0.0704    constr:    0.0000
     atom:    5    charge:    3.1175    magn:   -0.0271    constr:    0.0000
     atom:    6    charge:    1.9471    magn:    0.0742    constr:    0.0000
     atom:    7    charge:    3.1155    magn:   -0.0337    constr:    0.0000
     atom:    8    charge:    1.9419    magn:    0.0791    constr:    0.0000
     atom:    9    charge:    3.1167    magn:   -0.0239    constr:    0.0000
     atom:   10    charge:    1.9407    magn:    0.0813    constr:    0.0000
     atom:   11    charge:    3.1182    magn:   -0.0176    constr:    0.0000
     atom:   12    charge:    1.9478    magn:    0.0705    constr:    0.0000
     atom:   13    charge:    3.1166    magn:   -0.0275    constr:    0.0000
     atom:   14    charge:    1.9575    magn:    0.0695    constr:    0.0000
     atom:   15    charge:    3.1186    magn:   -0.0348    constr:    0.0000
     atom:   16    charge:    1.9412    magn:    0.0791    constr:    0.0000
     atom:   17    charge:    1.9258    magn:    0.1758    constr:    0.0000
     atom:   18    charge:    3.1270    magn:    0.0471    constr:    0.0000
     atom:   19    charge:    1.9389    magn:    0.0700    constr:    0.0000
     atom:   20    charge:    1.9484    magn:    0.0723    constr:    0.0000
     atom:   21    charge:    1.9485    magn:    0.0722    constr:    0.0000
     atom:   22    charge:    3.1191    magn:   -0.0224    constr:    0.0000
     atom:   23    charge:    1.9539    magn:    0.0704    constr:    0.0000
     atom:   24    charge:    1.9372    magn:    0.0791    constr:    0.0000
     atom:   25    charge:    1.9479    magn:    0.0706    constr:    0.0000
     atom:   26    charge:    3.1080    magn:   -0.0235    constr:    0.0000
     atom:   27    charge:    1.9388    magn:    0.0816    constr:    0.0000
     atom:   28    charge:    1.9507    magn:    0.0759    constr:    0.0000
     atom:   29    charge:    1.9481    magn:    0.0768    constr:    0.0000
     atom:   30    charge:    3.1131    magn:   -0.0427    constr:    0.0000
     atom:   31    charge:    1.9454    magn:    0.0830    constr:    0.0000
     atom:   32    charge:    1.9395    magn:    0.0775    constr:    0.0000
     atom:   33    charge:    1.9258    magn:    0.1758    constr:    0.0000
     atom:   34    charge:    3.1271    magn:    0.0471    constr:    0.0000
     atom:   35    charge:    1.9390    magn:    0.0699    constr:    0.0000
     atom:   36    charge:    1.9485    magn:    0.0720    constr:    0.0000
     atom:   37    charge:    1.9485    magn:    0.0722    constr:    0.0000
     atom:   38    charge:    3.1191    magn:   -0.0223    constr:    0.0000
     atom:   39    charge:    1.9523    magn:    0.0709    constr:    0.0000
     atom:   40    charge:    1.9374    magn:    0.0786    constr:    0.0000
     atom:   41    charge:    1.9479    magn:    0.0706    constr:    0.0000
     atom:   42    charge:    3.1076    magn:   -0.0236    constr:    0.0000
     atom:   43    charge:    1.9402    magn:    0.0821    constr:    0.0000
     atom:   44    charge:    1.9507    magn:    0.0760    constr:    0.0000
     atom:   45    charge:    1.9473    magn:    0.0767    constr:    0.0000
     atom:   46    charge:    3.1130    magn:   -0.0431    constr:    0.0000
     atom:   47    charge:    1.9447    magn:    0.0893    constr:    0.0000
     atom:   48    charge:    1.9400    magn:    0.0776    constr:    0.0000
     atom:   49    charge:    0.6618    magn:    0.0341    constr:    0.0000
     atom:   50    charge:    1.9616    magn:    0.0491    constr:    0.0000
     atom:   51    charge:    0.4075    magn:   -0.0161    constr:    0.0000
     atom:   52    charge:    0.4010    magn:   -0.0149    constr:    0.0000
     atom:   53    charge:    0.4096    magn:   -0.0160    constr:    0.0000
     atom:   54    charge:    0.4103    magn:   -0.0160    constr:    0.0000

     total cpu time spent up to now is     3491.5 secs

     total energy              =   -3021.39231581 Ry
     Harris-Foulkes estimate   =   -3021.48572764 Ry
     estimated scf accuracy    <       0.79740607 Ry

     total magnetization       =     0.02 Bohr mag/cell
     absolute magnetization    =     5.27 Bohr mag/cell

     iteration # 14     ecut=    40.42 Ry     beta=0.10
     Davidson diagonalization with overlap
     ethr =  2.00E-04,  avg # of iterations =  2.5

     negative rho (up, down):  1.416E-02 1.169E-02
 
     Magnetic moment per site:
     atom:    1    charge:    3.1201    magn:   -0.0271    constr:    0.0000
     atom:    2    charge:    1.9409    magn:    0.0739    constr:    0.0000
     atom:    3    charge:    3.1193    magn:   -0.0195    constr:    0.0000
     atom:    4    charge:    1.9463    magn:    0.0637    constr:    0.0000
     atom:    5    charge:    3.1184    magn:   -0.0273    constr:    0.0000
     atom:    6    charge:    1.9464    magn:    0.0673    constr:    0.0000
     atom:    7    charge:    3.1145    magn:   -0.0354    constr:    0.0000
     atom:    8    charge:    1.9413    magn:    0.0720    constr:    0.0000
     atom:    9    charge:    3.1201    magn:   -0.0271    constr:    0.0000
     atom:   10    charge:    1.9409    magn:    0.0739    constr:    0.0000
     atom:   11    charge:    3.1192    magn:   -0.0199    constr:    0.0000
     atom:   12    charge:    1.9463    magn:    0.0638    constr:    0.0000
     atom:   13    charge:    3.1175    magn:   -0.0277    constr:    0.0000
     atom:   14    charge:    1.9573    magn:    0.0628    constr:    0.0000
     atom:   15    charge:    3.1180    magn:   -0.0364    constr:    0.0000
     atom:   16    charge:    1.9406    magn:    0.0720    constr:    0.0000
     atom:   17    charge:    1.9232    magn:    0.1651    constr:    0.0000
     atom:   18    charge:    3.1281    magn:    0.0411    constr:    0.0000
[...]
    -1.2976  -1.2668  -1.2515  -1.1895  -1.1523  -1.0313  -1.0197  -1.0116
    -0.9887  -0.9487  -0.9055  -0.8383  -0.7568  -0.7014  -0.6470  -0.5938
    -0.5897  -0.5348  -0.5183   0.0675   0.0676   0.2117   0.2134   2.1534
     2.1542   2.2007   2.2026   2.2385   2.2394   2.2665   2.2980   2.4881
     2.4936   2.5256   2.5554   2.6091   2.6168   2.6793   2.6812   2.6909
     2.6920   2.8442   2.9099   2.9830   2.9980   3.0342   3.0418   3.0985
     3.2200   3.2494   3.2725   3.3329   3.3737   3.3905   3.4449   3.4928
     3.5003   3.5227   3.5492   3.5810   3.6038   3.6801   3.7000   3.7453
     3.8348   3.8911   3.9073   3.9525   3.9528   4.0958   4.1026   4.1114
     4.1119   4.6144   4.7833   4.7872   4.8024   4.8709   4.9208   4.9259
     4.9422   4.9848   5.0273   5.2491   5.3399   5.3592   5.3698   5.7303
     5.8000   5.9110   5.9273   5.9799   6.0430   6.1495   6.3033   6.3497
     6.3652   6.3748   6.4103   6.5755   6.6179   6.6651   6.6652   6.7035
     6.7634   6.8460   6.8470   6.8524   6.8533   7.3610   7.4090   7.5253
     7.6636   7.8271   8.0140   8.1722   8.2246   8.3202   8.3900   8.8260
     8.9149   9.0459   9.0828

          k =-0.0253 0.0280 0.0000 ( 34687 PWs)   bands (ev):

   -57.6971 -57.6669 -57.3152 -57.2837 -57.2317 -57.1073 -57.0754 -57.0701
   -57.0508 -57.0397 -56.9872 -56.9565 -56.7279 -56.6954 -56.1478 -56.1173
   -34.1104 -33.9798 -33.9551 -33.8936 -33.8442 -33.8125 -33.7726 -33.6310
   -33.6116 -33.5818 -33.5424 -33.5344 -33.5218 -33.5160 -33.4926 -33.4721
   -33.4657 -33.4603 -33.4288 -33.3851 -33.3177 -33.2905 -33.2832 -33.2641
   -33.2586 -33.2538 -33.2525 -33.2474 -33.2373 -33.2359 -33.2349 -33.2162
   -33.2025 -33.1848 -33.1767 -33.1444 -33.1412 -32.9927 -32.9790 -32.9580
   -32.9131 -32.8332 -32.5425 -32.5016 -32.4776 -32.3661 -32.2868 -32.2000
   -20.3000 -17.9229 -17.7444 -17.4636 -17.3835 -17.3094 -17.2324 -17.1277
   -17.0983 -17.0059 -16.9629 -16.8593 -16.8298 -16.8068 -16.7839 -16.7701
   -16.7123 -16.7002 -16.6002 -16.5797 -16.5064 -16.4754 -16.3816 -16.3653
   -16.3563 -16.3293 -16.2004 -16.1737 -16.1533 -16.0110 -15.9668 -14.7410
   -14.6716 -11.4636  -7.2371  -5.4404  -5.2408  -5.2072  -5.1811  -5.0215
    -4.9660  -4.9365  -4.7586  -4.7009  -4.5620  -4.4025  -4.3711  -4.3455
    -4.2609  -4.2497  -4.1877  -4.1169  -4.0910  -4.0641  -4.0360  -4.0203
    -3.9746  -3.9406  -3.9141  -3.8686  -3.8220  -3.8113  -3.7841  -3.7197
    -3.7003  -3.6628  -3.6148  -3.6041  -3.5392  -3.5249  -3.3582  -3.2906
    -3.2527  -3.2193  -3.1486  -3.0719  -2.9828  -2.9458  -2.7837  -2.7057
    -2.6798  -2.6366  -2.6103  -2.5320  -2.5043  -2.4515  -2.4473  -2.4226
    -2.4058  -2.3846  -2.3396  -2.3013  -2.2175  -2.1753  -2.1214  -2.1036
    -2.0623  -1.9910  -1.9507  -1.8949  -1.8633  -1.8270  -1.7429  -1.7078
    -1.6528  -1.5991  -1.5931  -1.5600  -1.5159  -1.4703  -1.4361  -1.3929
    -1.3446  -1.3324  -1.2808  -1.2424  -1.1968  -1.1105  -1.0982  -1.0587
    -1.0109  -0.8923  -0.8405  -0.8305  -0.7554  -0.7385  -0.7086  -0.6595
    -0.4332  -0.2807  -0.1347  -0.0846   0.1503   0.1803   0.1907   1.7205
     1.8447   2.0159   2.1005   2.1957   2.2462   2.2854   2.3193   2.4043
     2.4155   2.4502   2.4861   2.5300   2.5325   2.5476   2.6081   2.6689
     2.7056   2.7392   2.7759   2.8123   2.9392   2.9865   3.0044   3.0274
     3.1076   3.1361   3.1464   3.1745   3.2091   3.2396   3.3479   3.3727
     3.4035   3.4200   3.4644   3.5068   3.5616   3.5710   3.6371   3.6607
     3.6729   3.7093   3.7494   3.8936   3.9926   4.1402   4.1850   4.2534
     4.3065   4.4528   4.5096   4.7712   4.9376   4.9515   4.9844   5.0780
     5.1592   5.1754   5.2237   5.3862   5.6453   5.6761   5.7292   5.7877
     5.8529   5.8653   5.8728   6.0066   6.0740   6.0789   6.1243   6.1459
     6.1973   6.2079   6.2160   6.2441   6.4286   6.5270   6.6124   6.6667
     6.7904   6.8598   6.9631   7.1511   7.2265   7.5044   7.9320   8.0301
     8.0954   8.2504   8.4438   8.5804   8.6480   8.7778   8.9491   9.2717
     9.3561   9.4661   9.5081

          k =-0.0253 0.0560 0.0000 ( 34699 PWs)   bands (ev):

   -57.6907 -57.6733 -57.3087 -57.2903 -57.2308 -57.1013 -57.0814 -57.0637
   -57.0517 -57.0462 -56.9808 -56.9630 -56.7213 -56.7020 -56.1414 -56.1238
   -34.0406 -33.9744 -33.9602 -33.8767 -33.8457 -33.8299 -33.7731 -33.5959
   -33.5732 -33.5719 -33.5349 -33.5252 -33.5086 -33.5074 -33.4765 -33.4724
   -33.4549 -33.4260 -33.4131 -33.3670 -33.3163 -33.3136 -33.3084 -33.3011
   -33.2862 -33.2764 -33.2678 -33.2623 -33.2532 -33.2483 -33.2380 -33.2342
   -33.2098 -33.1986 -33.1702 -33.1646 -33.1260 -32.9877 -32.9747 -32.9620
   -32.9261 -32.9028 -32.4966 -32.4827 -32.4718 -32.3495 -32.3037 -32.2741
   -20.2997 -17.7566 -17.5890 -17.3435 -17.2644 -17.2452 -17.1939 -17.1675
   -17.1394 -16.9954 -16.9704 -16.8805 -16.8763 -16.8302 -16.7972 -16.7720
   -16.7477 -16.6704 -16.6232 -16.6045 -16.5794 -16.5308 -16.4269 -16.4126
   -16.3561 -16.2847 -16.2339 -16.1945 -16.1568 -16.1119 -16.0394 -14.7596
   -14.7224 -11.4628  -7.2361  -5.4112  -5.2183  -5.0313  -4.9483  -4.8135
    -4.7568  -4.7147  -4.5580  -4.4965  -4.4911  -4.4134  -4.3940  -4.3442
    -4.2710  -4.2322  -4.2149  -4.1920  -4.1475  -4.1404  -4.1077  -4.0615
    -4.0315  -4.0099  -3.9944  -3.9365  -3.9239  -3.8731  -3.8630  -3.8220
    -3.7739  -3.7136  -3.6555  -3.5717  -3.4727  -3.3974  -3.3312  -3.2822
    -3.2379  -3.2169  -3.1800  -3.0133  -2.9359  -2.8646  -2.8261  -2.7830
    -2.7555  -2.6452  -2.5919  -2.5101  -2.4873  -2.4391  -2.3940  -2.3624
    -2.3428  -2.3238  -2.2908  -2.2657  -2.1895  -2.1406  -2.1266  -2.0368
    -2.0201  -2.0027  -1.9452  -1.9425  -1.9044  -1.8616  -1.8302  -1.8068
    -1.7430  -1.7106  -1.6723  -1.6423  -1.5796  -1.5395  -1.5050  -1.4603
    -1.4307  -1.3722  -1.3473  -1.3013  -1.2237  -1.2058  -1.1297  -1.1038
    -1.0612  -1.0138  -0.9240  -0.8762  -0.8138  -0.7997  -0.7380  -0.6800
    -0.6068  -0.4670  -0.2576   0.0931   0.1302   0.1574   0.1893   1.8613
     2.0477   2.1353   2.1785   2.2284   2.2701   2.3064   2.3335   2.3836
     2.4446   2.4593   2.4859   2.5134   2.5206   2.5838   2.6931   2.7245
     2.7449   2.7759   2.8279   2.8410   2.8934   2.9501   2.9711   2.9869
     3.0242   3.0349   3.1706   3.2082   3.2906   3.3170   3.3343   3.3710
     3.4118   3.4368   3.4603   3.5433   3.5592   3.6348   3.6575   3.7350
     3.7932   3.8172   3.8621   3.8987   3.9067   4.0728   4.1165   4.1649
     4.3426   4.3848   4.6165   4.9664   5.0196   5.1243   5.1383   5.1563
     5.2599   5.2874   5.3156   5.4285   5.5120   5.5611   5.6404   5.7630
     5.8250   5.8486   5.8954   5.9369   5.9567   5.9971   6.0529   6.0641
     6.1363   6.1558   6.2298   6.3222   6.3797   6.4102   6.4789   6.6463
     6.6948   6.7964   6.8417   7.0362   7.1502   7.3652   7.4850   7.5884
     7.9785   8.1773   8.3524   8.5229   8.6487   8.8604   9.0534   9.1164
     9.1800   9.4979   9.6247

          k =-0.0506 0.0280 0.0000 ( 34685 PWs)   bands (ev):

   -57.6971 -57.6669 -57.3152 -57.2837 -57.2317 -57.1072 -57.0753 -57.0703
   -57.0508 -57.0397 -56.9872 -56.9565 -56.7279 -56.6954 -56.1478 -56.1173
   -34.1111 -33.9798 -33.9551 -33.8922 -33.8444 -33.8125 -33.7727 -33.6324
   -33.6116 -33.5851 -33.5430 -33.5353 -33.5274 -33.5196 -33.4925 -33.4718
   -33.4580 -33.4484 -33.4288 -33.3689 -33.3174 -33.2907 -33.2789 -33.2651
   -33.2641 -33.2609 -33.2583 -33.2531 -33.2374 -33.2359 -33.2338 -33.2139
   -33.2030 -33.1850 -33.1767 -33.1442 -33.1411 -32.9928 -32.9834 -32.9566
   -32.9131 -32.8332 -32.5424 -32.5034 -32.4767 -32.3661 -32.2868 -32.2000
   -20.2996 -17.8607 -17.6508 -17.3688 -17.3416 -17.2499 -17.2245 -17.2140
   -17.1225 -17.0434 -16.9632 -16.9209 -16.8710 -16.8575 -16.8545 -16.8329
   -16.7636 -16.7444 -16.5595 -16.5282 -16.5042 -16.4379 -16.4154 -16.3764
   -16.3688 -16.3113 -16.1913 -16.1721 -16.1521 -16.0122 -15.9666 -14.7391
   -14.6717 -11.4611  -7.2314  -5.4537  -5.2256  -5.2056  -4.8918  -4.8337
    -4.7204  -4.7046  -4.6752  -4.6551  -4.6300  -4.5089  -4.4275  -4.3452
    -4.3184  -4.3018  -4.1594  -4.1268  -4.0606  -4.0264  -4.0083  -3.9929
    -3.9824  -3.9093  -3.8595  -3.8157  -3.7733  -3.7609  -3.7187  -3.6906
    -3.6556  -3.6332  -3.5828  -3.5510  -3.4456  -3.3173  -3.2833  -3.2616
    -3.2234  -3.1701  -3.1011  -3.0582  -2.9532  -2.9372  -2.8739  -2.8400
    -2.7428  -2.6932  -2.6597  -2.6503  -2.6041  -2.5903  -2.5354  -2.4950
    -2.4367  -2.3872  -2.3808  -2.3354  -2.3086  -2.2541  -2.1792  -2.1357
    -2.1133  -2.0621  -2.0261  -1.9740  -1.9397  -1.9049  -1.8597  -1.8313
    -1.7544  -1.7398  -1.7116  -1.6408  -1.5400  -1.5064  -1.4848  -1.4173
    -1.3670  -1.3474  -1.2789  -1.2605  -1.2374  -1.1469  -1.1130  -1.0129
    -0.9773  -0.8798  -0.8557  -0.8135  -0.7785  -0.7637  -0.7051  -0.6893
    -0.5128  -0.3114  -0.2592  -0.0720   0.1116   0.1409   0.1636   1.7040
     1.9050   2.0601   2.1231   2.1278   2.1727   2.2413   2.3617   2.3726
     2.4065   2.4386   2.5183   2.5680   2.5744   2.6030   2.6843   2.6970
     2.7434   2.8030   2.8336   2.9033   2.9564   2.9820   3.0419   3.0608
     3.0915   3.1611   3.1715   3.2011   3.3028   3.3569   3.3766   3.4107
     3.4462   3.4585   3.5473   3.5865   3.6039   3.6537   3.6761   3.6851
     3.7174   3.7713   3.8183   3.8698   3.9327   4.0593   4.1682   4.2821
     4.2935   4.4228   4.6227   4.6902   4.7645   4.8117   4.8561   4.9863
     5.0130   5.1270   5.2245   5.4703   5.5949   5.6413   5.7219   5.8057
     5.8619   5.8733   5.9259   5.9474   5.9818   6.0937   6.1178   6.1397
     6.2314   6.4326   6.4829   6.5408   6.5784   6.6084   6.6859   6.7420
     6.7976   6.8176   6.9740   7.1163   7.1675   7.3969   7.5706   7.7045
     8.1339   8.1652   8.2460   8.3909   8.7588   8.9686   9.0141   9.0486
     9.3763   9.4430   9.6099

          k =-0.0506 0.0560 0.0000 ( 34596 PWs)   bands (ev):

   -57.6907 -57.6733 -57.3087 -57.2903 -57.2308 -57.1012 -57.0814 -57.0638
   -57.0517 -57.0462 -56.9808 -56.9630 -56.7213 -56.7020 -56.1414 -56.1238
   -34.0411 -33.9744 -33.9601 -33.8755 -33.8459 -33.8295 -33.7732 -33.5959
   -33.5743 -33.5720 -33.5353 -33.5213 -33.5151 -33.5107 -33.4765 -33.4732
   -33.4529 -33.4260 -33.4035 -33.3534 -33.3178 -33.3171 -33.3007 -33.2987
   -33.2865 -33.2763 -33.2677 -33.2600 -33.2533 -33.2529 -33.2473 -33.2393
   -33.2099 -33.2001 -33.1702 -33.1643 -33.1255 -32.9877 -32.9775 -32.9618
   -32.9260 -32.9027 -32.4977 -32.4823 -32.4716 -32.3495 -32.3037 -32.2740
   -20.2993 -17.7062 -17.5001 -17.2914 -17.2397 -17.1978 -17.1732 -17.1619
   -17.0899 -17.0366 -17.0058 -16.9133 -16.8565 -16.8489 -16.8444 -16.8065
   -16.7761 -16.7221 -16.6627 -16.6226 -16.6129 -16.5507 -16.5125 -16.3991
   -16.3434 -16.2633 -16.2261 -16.1931 -16.1562 -16.1136 -16.0385 -14.7584
   -14.7227 -11.4602  -7.2302  -5.4265  -5.2171  -5.0218  -4.6587  -4.6168
    -4.5154  -4.4991  -4.4838  -4.4563  -4.4322  -4.3674  -4.3245  -4.3014
    -4.2256  -4.2056  -4.1459  -4.1318  -4.0825  -4.0671  -4.0459  -4.0364
    -4.0142  -3.9963  -3.9685  -3.9145  -3.8940  -3.8881  -3.8220  -3.7871
    -3.7306  -3.6598  -3.6300  -3.5226  -3.4877  -3.3752  -3.3284  -3.2616
    -3.2562  -3.2450  -3.1398  -3.0138  -2.9333  -2.9045  -2.8507  -2.8303
    -2.7563  -2.7265  -2.6847  -2.6096  -2.5916  -2.5675  -2.5288  -2.4898
    -2.4283  -2.4056  -2.3658  -2.3293  -2.3163  -2.2999  -2.2553  -2.1783
    -2.1525  -2.1211  -2.1142  -2.0772  -2.0474  -2.0022  -1.9841  -1.9017
    -1.8913  -1.8517  -1.8327  -1.7246  -1.6378  -1.6061  -1.5728  -1.4785
    -1.4085  -1.3748  -1.3074  -1.2499  -1.2062  -1.1104  -1.0740  -1.0174
    -1.0020  -0.9366  -0.8529  -0.8196  -0.7702  -0.7563  -0.6928  -0.6569
    -0.6513  -0.5177  -0.3246   0.0794   0.1137   0.1313   0.1947   1.8667
     2.0766   2.1658   2.1998   2.2211   2.2436   2.2987   2.3483   2.3935
     2.4037   2.5376   2.5706   2.5796   2.6076   2.6288   2.6837   2.7551
     2.7822   2.8046   2.8391   2.8814   2.9638   3.0048   3.0288   3.0626
     3.0977   3.1367   3.1681   3.2571   3.3361   3.3678   3.3974   3.4413
     3.4792   3.5002   3.5222   3.5429   3.6153   3.6477   3.7118   3.7442
     3.7803   3.8517   3.8805   3.9193   3.9252   3.9546   4.1116   4.1745
     4.2893   4.4738   4.7256   4.8070   4.8171   4.8969   4.9428   5.0925
     5.1660   5.2322   5.2722   5.3283   5.3727   5.4354   5.4961   5.6267
     5.7813   5.8308   5.8819   5.9526   6.0406   6.1248   6.2176   6.2602
     6.2872   6.3478   6.4167   6.4509   6.5039   6.5784   6.6498   6.7166
     6.7311   6.8248   6.8508   6.9846   7.0524   7.4123   7.4327   7.5771
     7.7461   7.9433   8.0726   8.3891   8.5749   8.6112   8.7429   9.0097
     9.2249   9.3248   9.4545

     the Fermi energy is     0.9972 ev

!    total energy              =   -3021.42018099 Ry
     Harris-Foulkes estimate   =   -3021.42013894 Ry
     estimated scf accuracy    <       0.00000036 Ry

     The total energy is the sum of the following terms:

     one-electron contribution =  -41241.39710729 Ry
     hartree contribution      =   20694.94785256 Ry
     xc contribution           =    -553.69078253 Ry
     ewald contribution        =   18078.72006757 Ry
     smearing contrib. (-TS)   =      -0.00021129 Ry

     total magnetization       =     0.00 Bohr mag/cell
     absolute magnetization    =     0.01 Bohr mag/cell

     convergence has been achieved in  30 iterations

     Forces acting on atoms (Ry/au):


     negative rho (up, down):  1.209E-02 1.209E-02
     atom    1 type  1   force =     0.00001267   -0.00035655   -0.13378749
     atom    2 type  2   force =     0.00000486    0.00002934    0.07214231
     atom    3 type  1   force =    -0.00135888    0.00030959   -0.06096246
     atom    4 type  2   force =     0.00289084    0.00048725    0.00638058
     atom    5 type  1   force =     0.00027524    0.00185421    0.00352129
     atom    6 type  2   force =     0.00005827    0.00000951   -0.00287155
     atom    7 type  1   force =    -0.00032943   -0.00074631    0.00452265
     atom    8 type  2   force =     0.00093276   -0.00020855   -0.00067854
     atom    9 type  1   force =    -0.00003097    0.00001996   -0.13354317
     atom   10 type  2   force =    -0.00006680    0.00006610    0.07132373
     atom   11 type  1   force =    -0.00132447   -0.00024138   -0.05587674
     atom   12 type  2   force =     0.00298378   -0.00006813    0.00609733
     atom   13 type  1   force =     0.00029364   -0.00148841    0.00346452
     atom   14 type  2   force =    -0.00120273   -0.00038665   -0.00289884
     atom   15 type  1   force =    -0.00055582    0.00020743    0.00448399
     atom   16 type  2   force =     0.00055792   -0.00018444   -0.00006499
     atom   17 type  2   force =    -0.00007034   -0.00007068    0.07939952
     atom   18 type  1   force =     0.00013693   -0.00016564    0.11911381
     atom   19 type  2   force =    -0.00010745   -0.00017385   -0.06669606
     atom   20 type  2   force =    -0.06323593    0.00014839   -0.03223571
     atom   21 type  2   force =     0.06321429    0.00001538   -0.03244109
     atom   22 type  1   force =     0.00072523    0.00108115    0.05974116
     atom   23 type  2   force =    -0.00017606    0.00005695   -0.00175398
     atom   24 type  2   force =    -0.00143278   -0.00000360   -0.02324445
     atom   25 type  2   force =    -0.00311836    0.00059018    0.00786702
     atom   26 type  1   force =     0.00064072    0.00028731    0.00459760
     atom   27 type  2   force =     0.00052335    0.00059800   -0.00380163
     atom   28 type  2   force =     0.00015926   -0.00008868   -0.00119763
     atom   29 type  2   force =     0.00021248   -0.00034433   -0.00058133
     atom   30 type  1   force =     0.00031225   -0.00069152    0.00382503
     atom   31 type  2   force =     0.00005222    0.00011182   -0.00261633
     atom   32 type  2   force =     0.00004658   -0.00005709   -0.00120061
     atom   33 type  2   force =    -0.00011866    0.00003783    0.07900214
     atom   34 type  1   force =     0.00007214   -0.00021842    0.11903284
     atom   35 type  2   force =    -0.00030384   -0.00005378   -0.06639602
     atom   36 type  2   force =    -0.06319563   -0.00005250   -0.03232329
     atom   37 type  2   force =     0.06334394   -0.00020220   -0.03247907
     atom   38 type  1   force =     0.00066442   -0.00098025    0.05996222
     atom   39 type  2   force =    -0.00045884    0.00010498   -0.00249874
     atom   40 type  2   force =    -0.00118870    0.00030686   -0.02215468
     atom   41 type  2   force =    -0.00315776   -0.00014967    0.00789297
     atom   42 type  1   force =     0.00052104    0.00006534    0.00371413
     atom   43 type  2   force =     0.00069195    0.00023482   -0.00297852
     atom   44 type  2   force =     0.00024458    0.00010201   -0.00115692
     atom   45 type  2   force =     0.00018904    0.00030955   -0.00061239
     atom   46 type  1   force =     0.00056172    0.00029402    0.00390261
     atom   47 type  2   force =     0.00006775   -0.00032052   -0.00131577
     atom   48 type  2   force =     0.00012336    0.00009981   -0.00094006
     atom   49 type  3   force =    -0.00120231   -0.00070317    0.00288021
     atom   50 type  2   force =     0.00124279   -0.00022858   -0.00315910
     atom   51 type  4   force =     0.00009350    0.00005304   -0.00006245
     atom   52 type  4   force =     0.00033776    0.00034752    0.00076910
     atom   53 type  4   force =     0.00010299    0.00101453   -0.00061896
     atom   54 type  4   force =     0.00034554   -0.00065796   -0.00048818

     Total force =     0.362620     Total SCF correction =     0.001135
 !ASE

     Writing output data file calc.save
 
     init_run     :     52.75s CPU     66.00s WALL (       1 calls)
     electrons    :   5840.69s CPU   7078.69s WALL (       1 calls)
     forces       :     39.68s CPU     41.57s WALL (       1 calls)

     Called by init_run:
     wfcinit      :     43.90s CPU     56.39s WALL (       1 calls)
     potinit      :      2.11s CPU      2.40s WALL (       1 calls)

     Called by electrons:
     c_bands      :   5009.14s CPU   6039.56s WALL (      30 calls)
     sum_band     :    698.81s CPU    887.88s WALL (      30 calls)
     v_of_rho     :     30.23s CPU     38.55s WALL (      31 calls)
     newd         :    104.39s CPU    114.25s WALL (      31 calls)
     mix_rho      :      1.42s CPU      1.92s WALL (      30 calls)
     vdW_energy   :      5.24s CPU      6.59s WALL (      32 calls)
     vdW_ffts     :      7.74s CPU     10.55s WALL (      64 calls)
     vdW_v        :      2.98s CPU      3.61s WALL (      32 calls)

     Called by c_bands:
     init_us_2    :     16.97s CPU     18.40s WALL (    2480 calls)
     cegterg      :   4902.98s CPU   5927.54s WALL (    1200 calls)

     Called by *egterg:
     h_psi        :   2063.84s CPU   2840.03s WALL (    5896 calls)
     s_psi        :    253.22s CPU    265.44s WALL (    5896 calls)
     g_psi        :     13.77s CPU     13.99s WALL (    4656 calls)
     cdiaghg      :   1602.81s CPU   1640.36s WALL (    5856 calls)

     Called by h_psi:
     add_vuspsi   :    254.92s CPU    266.34s WALL (    5896 calls)

     General routines
     calbec       :    390.03s CPU    399.13s WALL (    7136 calls)
     fft          :     16.39s CPU     21.80s WALL (    2570 calls)
     ffts         :      0.14s CPU      0.21s WALL (     122 calls)
     fftw         :   1350.71s CPU   2277.07s WALL ( 2053024 calls)
     interpolate  :      0.95s CPU      1.53s WALL (     122 calls)
     davcio       :      0.01s CPU      0.94s WALL (      40 calls)
 
     Parallel routines
     fft_scatter  :    667.20s CPU   1250.32s WALL ( 2055716 calls)
 
     PWSCF        :     1h38m CPU        1h59m WALL

 
   This run was terminated on:   9: 8:48  12Feb2018            

=------------------------------------------------------------------------------=
   JOB DONE.
=------------------------------------------------------------------------------=
