  python dir          : /home/vossj/suncat/lib/python2.7/site-packages/espresso
  espresso dir        : /home/vossj/suncat/esdld/espresso-dynpy-beef/bin
  pseudo dir          : /home/alatimer/bin/psp/esp_psp_w_gbrvRu/
  ase-espresso py git : ffa2778-git



     Program PWSCF v.5.1rc2 (svn rev. ) starts on 10Mar2018 at  7:29:48 

     This program is part of the open-source Quantum ESPRESSO suite
     for quantum simulation of materials; please cite
         "P. Giannozzi et al., J. Phys.:Condens. Matter 21 395502 (2009);
          URL http://www.quantum-espresso.org", 
     in publications or presentations arising from this work. More details at
     http://www.quantum-espresso.org/quote

     Parallel version (MPI), running on    16 processors
     R & G space division:  proc/nbgrp/npool/nimage =      16
     Reading input from pw.inp
     Message from routine read_cards :
     DEPRECATED: no units specified in CELL_PARAMETERS card

     Current dimensions of program PWSCF are:
     Max number of different atomic species (ntypx) = 10
     Max number of k-points (npk) =  40000
     Max angular momentum in pseudopotentials (lmaxx) =  3

     **************************************************************************
     Initializing libbeef V0.1.1 with the BEEF-vdW functional.
     Citation: Wellendorff et al., PRB 85, 235149 (2012).
     **************************************************************************


     IMPORTANT: XC functional enforced from input :
     Exchange-correlation      = BEEF ( 1  4 27 13 2)
     Any further DFT definition will be discarded
     Please, verify this is what you really want


     Subspace diagonalization in iterative solution of the eigenvalue problem:
     a serial algorithm will be used

 
     Parallelization info
     --------------------
     sticks:   dense  smooth     PW     G-vecs:    dense   smooth      PW
     Min         281     112     31                68535    17318    2565
     Max         282     113     32                68545    17369    2582
     Sum        4501    1795    503              1096637   277353   41113
 
     Generating pointlists ...
     new r_m :   0.4125 (alat units)  0.7795 (a.u.) for type    1
     new r_m :   0.4125 (alat units)  0.7795 (a.u.) for type    2
     new r_m :   0.4125 (alat units)  0.7795 (a.u.) for type    3


     bravais-lattice index     =            0
     lattice parameter (alat)  =       1.8897  a.u.
     unit-cell volume          =    7990.9933 (a.u.)^3
     number of atoms/cell      =           51
     number of atomic types    =            3
     number of electrons       =       400.00
     number of Kohn-Sham states=          300
     kinetic-energy cutoff     =      40.4243  Ry
     charge density cutoff     =     404.2426  Ry
     convergence threshold     =      7.3E-07
     mixing beta               =       0.1000
     number of iterations used =           10  plain     mixing
     Exchange-correlation      = BEEF ( 1  4 27 13 2)
     nstep                     =           50


     celldm(1)=   1.889726  celldm(2)=   0.000000  celldm(3)=   0.000000
     celldm(4)=   0.000000  celldm(5)=   0.000000  celldm(6)=   0.000000

     crystal axes: (cart. coord. in units of alat)
               a(1) = (   6.590708   0.000000   0.000000 )  
               a(2) = (   0.000000   5.950229   0.000000 )  
               a(3) = (   0.000000   0.000000  30.195235 )  

     reciprocal axes: (cart. coord. in units 2 pi/alat)
               b(1) = (  0.151729  0.000000  0.000000 )  
               b(2) = (  0.000000  0.168061  0.000000 )  
               b(3) = (  0.000000  0.000000  0.033118 )  


     PseudoPot. # 1 for Ti read from file:
     /home/alatimer/bin/psp/esp_psp_w_gbrvRu/Ti.UPF
     MD5 check sum: 8e4df49b7f0d34bbd5052bf3f5ea0213
     Pseudo is Ultrasoft, Zval = 12.0
     Generated by new atomic code, or converted to UPF format
     Using radial grid of  851 points,  6 beta functions with: 
                l(1) =   0
                l(2) =   0
                l(3) =   1
                l(4) =   1
                l(5) =   2
                l(6) =   2
     Q(r) pseudized with  8 coefficients,  rinner =    1.000   1.000   1.000
                                                       1.000   1.000

     PseudoPot. # 2 for  O read from file:
     /home/alatimer/bin/psp/esp_psp_w_gbrvRu/O.UPF
     MD5 check sum: e057bbcf3229fb5d8c36c0c92f9568b4
     Pseudo is Ultrasoft + core correction, Zval =  6.0
     Generated using "atomic" code by A. Dal Corso  v.5.0.2 svn rev. 9415
     Using radial grid of 1095 points,  4 beta functions with: 
                l(1) =   0
                l(2) =   0
                l(3) =   1
                l(4) =   1
     Q(r) pseudized with 0 coefficients 


     PseudoPot. # 3 for  N read from file:
     /home/alatimer/bin/psp/esp_psp_w_gbrvRu/N.UPF
     MD5 check sum: ed8b6a90f28a53b7d71920e7015d2dd6
     Pseudo is Ultrasoft + core correction, Zval =  5.0
     Generated using "atomic" code by A. Dal Corso  v.5.0.2 svn rev. 9415
     Using radial grid of 1085 points,  4 beta functions with: 
                l(1) =   0
                l(2) =   0
                l(3) =   1
                l(4) =   1
     Q(r) pseudized with 0 coefficients 


     vdW kernel table read from file vdW_kernel_table
     MD5 check sum: 095c7af220d748ca6e76c0b4c6cfb241

     atomic species   valence    mass     pseudopotential
        Ti1           12.00    47.88000     Ti( 1.00)
        O1             6.00    15.99940      O( 1.00)
        N1             5.00    14.00670      N( 1.00)

     Starting magnetic structure 
     atomic species   magnetization
        Ti1          0.250
        O1           0.500
        N1           0.600

     No symmetry found



   Cartesian axes

     site n.     atom                  positions (alat units)
         1           Ti1 tau(   1) = (   1.6476770   0.7437786   2.6545865  )
         2           O1  tau(   2) = (   1.6476770   2.2313359   3.9361215  )
         3           Ti1 tau(   3) = (   1.6476770   2.2313359   5.9499405  )
         4           O1  tau(   4) = (   0.3661420   0.7437786   5.9499405  )
         5           Ti1 tau(   5) = (   1.5280591   0.7315068   9.1973351  )
         6           O1  tau(   6) = (   1.6613943   2.1836906  10.6091769  )
         7           Ti1 tau(   7) = (   1.6665780   2.2096385  12.4157880  )
         8           O1  tau(   8) = (   0.4439715   0.7264440  12.7601561  )
         9           Ti1 tau(   9) = (   1.6476770   3.7188931   2.6545865  )
        10           O1  tau(  10) = (   1.6476770   5.2064503   3.9361215  )
        11           Ti1 tau(  11) = (   1.6476770   5.2064503   5.9499405  )
        12           O1  tau(  12) = (   0.3661420   3.7188931   5.9499405  )
        13           Ti1 tau(  13) = (   1.5319291   3.7072436   9.2118370  )
        14           O1  tau(  14) = (   1.6575607   5.2126413  10.6087893  )
        15           Ti1 tau(  15) = (   1.6606453   5.1916961  12.4165775  )
        16           O1  tau(  16) = (   0.4123725   3.7022030  12.5882193  )
        17           O1  tau(  17) = (   1.6476770   2.2313359   1.3730516  )
        18           Ti1 tau(  18) = (   4.9430310   2.2313359   2.6545865  )
        19           O1  tau(  19) = (   4.9430310   2.2313359   4.6684056  )
        20           O1  tau(  20) = (   6.2245660   0.7437786   2.6545865  )
        21           O1  tau(  21) = (   3.6614961   0.7437786   2.6545865  )
        22           Ti1 tau(  22) = (   4.9430310   0.7437786   5.9499405  )
        23           O1  tau(  23) = (   1.6517842   2.2287041   8.0298356  )
        24           O1  tau(  24) = (   4.9430310   2.2313359   7.2314755  )
        25           O1  tau(  25) = (   2.9292120   0.7437786   5.9499405  )
        26           Ti1 tau(  26) = (   4.8605205   2.2076595   9.4238065  )
        27           O1  tau(  27) = (   4.9553550   2.1639423  11.2756624  )
        28           O1  tau(  28) = (   6.2690671   0.7288246   9.2688367  )
        29           O1  tau(  29) = (   3.6660957   0.7249325   9.2867299  )
        30           Ti1 tau(  30) = (   4.9284588   0.7282168  12.7798302  )
        31           O1  tau(  31) = (   4.9953437   2.2216212  13.8477397  )
        32           O1  tau(  32) = (   2.9112183   0.7266397  12.7651274  )
        33           O1  tau(  33) = (   1.6476770   5.2064503   1.3730516  )
        34           Ti1 tau(  34) = (   4.9430310   5.2064503   2.6545865  )
        35           O1  tau(  35) = (   4.9430310   5.2064503   4.6684056  )
        36           O1  tau(  36) = (   6.2245660   3.7188931   2.6545865  )
        37           O1  tau(  37) = (   3.6614961   3.7188931   2.6545865  )
        38           Ti1 tau(  38) = (   4.9430310   3.7188931   5.9499405  )
        39           O1  tau(  39) = (   1.6524867   5.1852222   8.0294571  )
        40           O1  tau(  40) = (   4.9430310   5.2064503   7.2314755  )
        41           O1  tau(  41) = (   2.9292120   3.7188931   5.9499405  )
        42           Ti1 tau(  42) = (   4.8610151   5.1886528   9.4241876  )
        43           O1  tau(  43) = (   4.9550983   5.2107439  11.2753448  )
        44           O1  tau(  44) = (   6.2713562   3.7024388   9.3047907  )
        45           O1  tau(  45) = (   3.6650622   3.7005085   9.3135888  )
        46           Ti1 tau(  46) = (   5.0160509   3.7038162  12.7585864  )
        47           O1  tau(  47) = (   4.9984032   5.1727849  13.8485277  )
        48           O1  tau(  48) = (   2.9655234   3.7049164  12.5317472  )
        49           O1  tau(  49) = (   2.2548149   3.6763572  14.5693114  )
        50           N1  tau(  50) = (   2.4020298   3.6667063  16.9651815  )
        51           N1  tau(  51) = (   2.1425646   3.6919273  15.8611024  )

     number of k points=    40  Fermi-Dirac smearing, width (Ry)=  0.0073
                       cart. coord. in units 2pi/alat
        k(    1) = (   0.0000000   0.0000000   0.0000000), wk =   0.0277778
        k(    2) = (   0.0000000   0.0280101   0.0000000), wk =   0.0555556
        k(    3) = (   0.0000000   0.0560203   0.0000000), wk =   0.0555556
        k(    4) = (   0.0000000  -0.0840304   0.0000000), wk =   0.0277778
        k(    5) = (   0.0252881   0.0000000   0.0000000), wk =   0.0555556
        k(    6) = (   0.0252881   0.0280101   0.0000000), wk =   0.0555556
        k(    7) = (   0.0252881   0.0560203   0.0000000), wk =   0.0555556
        k(    8) = (   0.0252881  -0.0840304   0.0000000), wk =   0.0555556
        k(    9) = (   0.0505763   0.0000000   0.0000000), wk =   0.0555556
        k(   10) = (   0.0505763   0.0280101   0.0000000), wk =   0.0555556
        k(   11) = (   0.0505763   0.0560203   0.0000000), wk =   0.0555556
        k(   12) = (   0.0505763  -0.0840304   0.0000000), wk =   0.0555556
        k(   13) = (  -0.0758644   0.0000000   0.0000000), wk =   0.0277778
        k(   14) = (  -0.0758644   0.0280101   0.0000000), wk =   0.0555556
        k(   15) = (  -0.0758644   0.0560203   0.0000000), wk =   0.0555556
        k(   16) = (  -0.0758644  -0.0840304   0.0000000), wk =   0.0277778
        k(   17) = (  -0.0252881   0.0280101   0.0000000), wk =   0.0555556
        k(   18) = (  -0.0252881   0.0560203   0.0000000), wk =   0.0555556
        k(   19) = (  -0.0505763   0.0280101   0.0000000), wk =   0.0555556
        k(   20) = (  -0.0505763   0.0560203   0.0000000), wk =   0.0555556
        k(   21) = (   0.0000000   0.0000000   0.0000000), wk =   0.0277778
        k(   22) = (   0.0000000   0.0280101   0.0000000), wk =   0.0555556
        k(   23) = (   0.0000000   0.0560203   0.0000000), wk =   0.0555556
        k(   24) = (   0.0000000  -0.0840304   0.0000000), wk =   0.0277778
        k(   25) = (   0.0252881   0.0000000   0.0000000), wk =   0.0555556
        k(   26) = (   0.0252881   0.0280101   0.0000000), wk =   0.0555556
        k(   27) = (   0.0252881   0.0560203   0.0000000), wk =   0.0555556
        k(   28) = (   0.0252881  -0.0840304   0.0000000), wk =   0.0555556
        k(   29) = (   0.0505763   0.0000000   0.0000000), wk =   0.0555556
        k(   30) = (   0.0505763   0.0280101   0.0000000), wk =   0.0555556
        k(   31) = (   0.0505763   0.0560203   0.0000000), wk =   0.0555556
        k(   32) = (   0.0505763  -0.0840304   0.0000000), wk =   0.0555556
        k(   33) = (  -0.0758644   0.0000000   0.0000000), wk =   0.0277778
        k(   34) = (  -0.0758644   0.0280101   0.0000000), wk =   0.0555556
        k(   35) = (  -0.0758644   0.0560203   0.0000000), wk =   0.0555556
        k(   36) = (  -0.0758644  -0.0840304   0.0000000), wk =   0.0277778
        k(   37) = (  -0.0252881   0.0280101   0.0000000), wk =   0.0555556
        k(   38) = (  -0.0252881   0.0560203   0.0000000), wk =   0.0555556
        k(   39) = (  -0.0505763   0.0280101   0.0000000), wk =   0.0555556
        k(   40) = (  -0.0505763   0.0560203   0.0000000), wk =   0.0555556

     Dense  grid:  1096637 G-vectors     FFT dimensions: (  80,  72, 375)

     Smooth grid:   277353 G-vectors     FFT dimensions: (  54,  45, 240)

     Largest allocated arrays     est. size (Mb)     dimensions
        Kohn-Sham Wavefunctions         9.98 Mb     (    2180,  300)
        NL pseudopotentials            18.89 Mb     (    2180,  568)
        Each V/rho on FFT grid          4.22 Mb     (  138240,   2)
        Each G-vector array             0.52 Mb     (   68538)
        G-vector shells                 0.25 Mb     (   33046)
     Largest temporary arrays     est. size (Mb)     dimensions
        Auxiliary wavefunctions        39.92 Mb     (    2180, 1200)
        Each subspace H/S matrix       21.97 Mb     (    1200, 1200)
        Each <psi_i|beta_j> matrix      2.60 Mb     (     568,  300)
        Arrays for rho mixing          21.09 Mb     (  138240,   10)

     Check: negative/imaginary core charge=   -0.000049    0.000000

     The initial density is read from file :
     ./calc.save/charge-density.dat


     negative rho (up, down):  1.158E-02 1.158E-02


     ************************************************************************
     *
     * You are using vdW-DF for exchange-correlation in this calculation.
     * Please cite the following three references that made this development
     * possible:
     *
     *   M. Dion, H. Rydberg, E. Schroder, D. C. Langreth, and
     *   B. I. Lundqvist, Phys. Rev. Lett. 92, 246401 (2004).
     *
     *   T. Thonhauser, V. R. Cooper, S. Li, A. Puzder, P. Hyldgaard, and
     *   D. C. Langreth, Phys. Rev. B 76, 125112 (2007).
     *
     *   G. Roman-Perez and J. M. Soler, Phys. Rev. Lett. 103, 096102 (2009).
     *
     *
     * If you are using vdW-DF2, please also cite:
     *
     *   K. Lee, E. D. Murray, L. Kong, B. I. Lundqvist, and
     *   D. C. Langreth, Phys. Rev. B 82, 081101(R) (2010).
     *
     *
     * If you are calculating the stress with vdW-DF, please also cite:
     *
     *   R. Sabatini, E. Kucukbenli, B. Kolb, T. Thonhauser, and
     *   S. de Gironcoli, J. Phys.: Condens. Matter 24, 424209 (2012).
     *
     ************************************************************************

     Carrying out vdW-DF run using the following parameters:

     Nqs =      20    Nr_points =    1024   r_max =   100.000
     q_mesh =
               0.00001000     0.04494208     0.09755937     0.15916263
               0.23128650     0.31572767     0.41458969     0.53033537
               0.66584808     0.82450364     1.01025438     1.22772762
               1.48234092     1.78043706     2.12944203     2.53805004
               3.01644009     3.57652955     4.23227104     5.00000000

     Gradients computed in reciprocal space

     ************************************************************************


     Starting wfc are  300 randomized atomic wfcs

     total cpu time spent up to now is       69.1 secs

     Self-consistent Calculation

     iteration #  1     ecut=    40.42 Ry     beta=0.10
     Davidson diagonalization with overlap
     ethr =  1.00E-05,  avg # of iterations = 14.9

     negative rho (up, down):  1.158E-02 1.158E-02
 
     Magnetic moment per site:
     atom:    1    charge:    3.1250    magn:   -0.0002    constr:    0.0000
     atom:    2    charge:    2.0894    magn:    0.0001    constr:    0.0000
     atom:    3    charge:    3.1196    magn:   -0.0001    constr:    0.0000
     atom:    4    charge:    2.0870    magn:    0.0000    constr:    0.0000
     atom:    5    charge:    3.1170    magn:   -0.0001    constr:    0.0000
     atom:    6    charge:    2.0914    magn:    0.0001    constr:    0.0000
     atom:    7    charge:    3.1198    magn:   -0.0000    constr:    0.0000
     atom:    8    charge:    2.0815    magn:    0.0001    constr:    0.0000
     atom:    9    charge:    3.1250    magn:   -0.0002    constr:    0.0000
     atom:   10    charge:    2.0894    magn:    0.0001    constr:    0.0000
     atom:   11    charge:    3.1196    magn:   -0.0001    constr:    0.0000
     atom:   12    charge:    2.0870    magn:    0.0000    constr:    0.0000
     atom:   13    charge:    3.1148    magn:   -0.0001    constr:    0.0000
     atom:   14    charge:    2.0914    magn:    0.0001    constr:    0.0000
     atom:   15    charge:    3.1182    magn:   -0.0000    constr:    0.0000
     atom:   16    charge:    2.0883    magn:    0.0001    constr:    0.0000
     atom:   17    charge:    2.0624    magn:    0.0004    constr:    0.0000
     atom:   18    charge:    3.1239    magn:   -0.0000    constr:    0.0000
     atom:   19    charge:    2.0878    magn:   -0.0000    constr:    0.0000
     atom:   20    charge:    2.0847    magn:   -0.0001    constr:    0.0000
     atom:   21    charge:    2.0847    magn:   -0.0001    constr:    0.0000
     atom:   22    charge:    3.1197    magn:   -0.0000    constr:    0.0000
     atom:   23    charge:    2.0909    magn:    0.0001    constr:    0.0000
     atom:   24    charge:    2.0777    magn:    0.0001    constr:    0.0000
     atom:   25    charge:    2.0869    magn:    0.0000    constr:    0.0000
     atom:   26    charge:    3.1165    magn:   -0.0001    constr:    0.0000
     atom:   27    charge:    2.0825    magn:    0.0002    constr:    0.0000
     atom:   28    charge:    2.0879    magn:    0.0001    constr:    0.0000
     atom:   29    charge:    2.0877    magn:    0.0001    constr:    0.0000
     atom:   30    charge:    3.1168    magn:   -0.0001    constr:    0.0000
     atom:   31    charge:    2.0822    magn:    0.0003    constr:    0.0000
     atom:   32    charge:    2.0842    magn:    0.0001    constr:    0.0000
     atom:   33    charge:    2.0624    magn:    0.0004    constr:    0.0000
     atom:   34    charge:    3.1239    magn:   -0.0000    constr:    0.0000
     atom:   35    charge:    2.0878    magn:   -0.0000    constr:    0.0000
     atom:   36    charge:    2.0847    magn:   -0.0001    constr:    0.0000
     atom:   37    charge:    2.0847    magn:   -0.0001    constr:    0.0000
     atom:   38    charge:    3.1197    magn:   -0.0000    constr:    0.0000
     atom:   39    charge:    2.0912    magn:    0.0001    constr:    0.0000
     atom:   40    charge:    2.0777    magn:    0.0001    constr:    0.0000
     atom:   41    charge:    2.0869    magn:    0.0000    constr:    0.0000
     atom:   42    charge:    3.1181    magn:   -0.0001    constr:    0.0000
     atom:   43    charge:    2.0836    magn:    0.0002    constr:    0.0000
     atom:   44    charge:    2.0865    magn:    0.0001    constr:    0.0000
     atom:   45    charge:    2.0871    magn:    0.0001    constr:    0.0000
     atom:   46    charge:    3.1171    magn:   -0.0001    constr:    0.0000
     atom:   47    charge:    2.0790    magn:    0.0003    constr:    0.0000
     atom:   48    charge:    2.0834    magn:    0.0002    constr:    0.0000
     atom:   49    charge:    2.0442    magn:   -0.0000    constr:    0.0000
     atom:   50    charge:    1.2590    magn:   -0.0000    constr:    0.0000
     atom:   51    charge:    1.2858    magn:    0.0000    constr:    0.0000

     total cpu time spent up to now is      799.5 secs

     total energy              =   -3044.98179781 Ry
     Harris-Foulkes estimate   =   -3044.99435108 Ry
     estimated scf accuracy    <       0.08437019 Ry

     total magnetization       =     0.00 Bohr mag/cell
     absolute magnetization    =     0.01 Bohr mag/cell

     iteration #  2     ecut=    40.42 Ry     beta=0.10
     Davidson diagonalization with overlap
     ethr =  2.11E-05,  avg # of iterations =  1.1

     negative rho (up, down):  1.158E-02 1.158E-02
 
     Magnetic moment per site:
     atom:    1    charge:    3.1250    magn:   -0.0001    constr:    0.0000
     atom:    2    charge:    2.0894    magn:    0.0001    constr:    0.0000
     atom:    3    charge:    3.1196    magn:   -0.0000    constr:    0.0000
     atom:    4    charge:    2.0870    magn:    0.0000    constr:    0.0000
     atom:    5    charge:    3.1170    magn:   -0.0000    constr:    0.0000
     atom:    6    charge:    2.0914    magn:    0.0001    constr:    0.0000
     atom:    7    charge:    3.1204    magn:   -0.0000    constr:    0.0000
     atom:    8    charge:    2.0816    magn:    0.0001    constr:    0.0000
     atom:    9    charge:    3.1250    magn:   -0.0001    constr:    0.0000
     atom:   10    charge:    2.0894    magn:    0.0001    constr:    0.0000
     atom:   11    charge:    3.1196    magn:   -0.0000    constr:    0.0000
     atom:   12    charge:    2.0870    magn:    0.0000    constr:    0.0000
     atom:   13    charge:    3.1148    magn:   -0.0000    constr:    0.0000
     atom:   14    charge:    2.0914    magn:    0.0001    constr:    0.0000
     atom:   15    charge:    3.1174    magn:   -0.0000    constr:    0.0000
     atom:   16    charge:    2.0883    magn:    0.0000    constr:    0.0000
     atom:   17    charge:    2.0624    magn:    0.0003    constr:    0.0000
     atom:   18    charge:    3.1239    magn:   -0.0000    constr:    0.0000
     atom:   19    charge:    2.0878    magn:   -0.0000    constr:    0.0000
     atom:   20    charge:    2.0847    magn:   -0.0001    constr:    0.0000
     atom:   21    charge:    2.0847    magn:   -0.0001    constr:    0.0000
     atom:   22    charge:    3.1197    magn:   -0.0000    constr:    0.0000
     atom:   23    charge:    2.0909    magn:    0.0001    constr:    0.0000
     atom:   24    charge:    2.0777    magn:    0.0001    constr:    0.0000
     atom:   25    charge:    2.0869    magn:    0.0000    constr:    0.0000
     atom:   26    charge:    3.1165    magn:   -0.0001    constr:    0.0000
     atom:   27    charge:    2.0824    magn:    0.0001    constr:    0.0000
     atom:   28    charge:    2.0879    magn:    0.0001    constr:    0.0000
     atom:   29    charge:    2.0877    magn:    0.0001    constr:    0.0000
     atom:   30    charge:    3.1168    magn:   -0.0001    constr:    0.0000
     atom:   31    charge:    2.0826    magn:    0.0002    constr:    0.0000
     atom:   32    charge:    2.0843    magn:    0.0001    constr:    0.0000
     atom:   33    charge:    2.0624    magn:    0.0003    constr:    0.0000
     atom:   34    charge:    3.1239    magn:   -0.0000    constr:    0.0000
     atom:   35    charge:    2.0878    magn:   -0.0000    constr:    0.0000
     atom:   36    charge:    2.0847    magn:   -0.0001    constr:    0.0000
     atom:   37    charge:    2.0847    magn:   -0.0001    constr:    0.0000
     atom:   38    charge:    3.1197    magn:   -0.0000    constr:    0.0000
     atom:   39    charge:    2.0912    magn:    0.0001    constr:    0.0000
     atom:   40    charge:    2.0777    magn:    0.0001    constr:    0.0000
     atom:   41    charge:    2.0869    magn:    0.0000    constr:    0.0000
     atom:   42    charge:    3.1181    magn:   -0.0001    constr:    0.0000
     atom:   43    charge:    2.0837    magn:    0.0001    constr:    0.0000
     atom:   44    charge:    2.0865    magn:    0.0001    constr:    0.0000
     atom:   45    charge:    2.0871    magn:    0.0001    constr:    0.0000
     atom:   46    charge:    3.1171    magn:   -0.0001    constr:    0.0000
     atom:   47    charge:    2.0786    magn:    0.0002    constr:    0.0000
     atom:   48    charge:    2.0834    magn:    0.0001    constr:    0.0000
     atom:   49    charge:    2.0472    magn:   -0.0000    constr:    0.0000
     atom:   50    charge:    1.2589    magn:   -0.0000    constr:    0.0000
     atom:   51    charge:    1.2855    magn:    0.0000    constr:    0.0000

     total cpu time spent up to now is      970.3 secs

     total energy              =   -3044.95697301 Ry
     Harris-Foulkes estimate   =   -3044.98252989 Ry
     estimated scf accuracy    <       0.05562999 Ry

     total magnetization       =     0.00 Bohr mag/cell
     absolute magnetization    =     0.01 Bohr mag/cell

     iteration #  3     ecut=    40.42 Ry     beta=0.10
     Davidson diagonalization with overlap
     ethr =  1.39E-05,  avg # of iterations =  2.0

     negative rho (up, down):  1.159E-02 1.159E-02
 
     Magnetic moment per site:
     atom:    1    charge:    3.1250    magn:   -0.0001    constr:    0.0000
     atom:    2    charge:    2.0894    magn:    0.0001    constr:    0.0000
     atom:    3    charge:    3.1196    magn:   -0.0000    constr:    0.0000
     atom:    4    charge:    2.0870    magn:    0.0000    constr:    0.0000
     atom:    5    charge:    3.1170    magn:   -0.0000    constr:    0.0000
     atom:    6    charge:    2.0922    magn:    0.0000    constr:    0.0000
     atom:    7    charge:    3.1173    magn:   -0.0000    constr:    0.0000
     atom:    8    charge:    2.0815    magn:    0.0000    constr:    0.0000
     atom:    9    charge:    3.1250    magn:   -0.0001    constr:    0.0000
     atom:   10    charge:    2.0894    magn:    0.0001    constr:    0.0000
     atom:   11    charge:    3.1196    magn:   -0.0000    constr:    0.0000
     atom:   12    charge:    2.0870    magn:    0.0000    constr:    0.0000
     atom:   13    charge:    3.1148    magn:   -0.0000    constr:    0.0000
     atom:   14    charge:    2.0906    magn:    0.0000    constr:    0.0000
     atom:   15    charge:    3.1206    magn:   -0.0000    constr:    0.0000
     atom:   16    charge:    2.0883    magn:    0.0000    constr:    0.0000
     atom:   17    charge:    2.0624    magn:    0.0002    constr:    0.0000
     atom:   18    charge:    3.1239    magn:   -0.0000    constr:    0.0000
     atom:   19    charge:    2.0878    magn:   -0.0000    constr:    0.0000
     atom:   20    charge:    2.0847    magn:   -0.0000    constr:    0.0000
     atom:   21    charge:    2.0847    magn:   -0.0000    constr:    0.0000
     atom:   22    charge:    3.1197    magn:   -0.0000    constr:    0.0000
     atom:   23    charge:    2.0908    magn:    0.0000    constr:    0.0000
     atom:   24    charge:    2.0777    magn:    0.0000    constr:    0.0000
     atom:   25    charge:    2.0869    magn:    0.0000    constr:    0.0000
     atom:   26    charge:    3.1165    magn:   -0.0000    constr:    0.0000
     atom:   27    charge:    2.0820    magn:    0.0001    constr:    0.0000
     atom:   28    charge:    2.0879    magn:    0.0001    constr:    0.0000
     atom:   29    charge:    2.0877    magn:    0.0000    constr:    0.0000
     atom:   30    charge:    3.1168    magn:   -0.0001    constr:    0.0000
     atom:   31    charge:    2.0808    magn:    0.0002    constr:    0.0000
     atom:   32    charge:    2.0842    magn:    0.0000    constr:    0.0000
     atom:   33    charge:    2.0624    magn:    0.0002    constr:    0.0000
     atom:   34    charge:    3.1239    magn:   -0.0000    constr:    0.0000
     atom:   35    charge:    2.0878    magn:   -0.0000    constr:    0.0000
     atom:   36    charge:    2.0847    magn:   -0.0000    constr:    0.0000
     atom:   37    charge:    2.0847    magn:   -0.0000    constr:    0.0000
     atom:   38    charge:    3.1197    magn:   -0.0000    constr:    0.0000
     atom:   39    charge:    2.0912    magn:    0.0000    constr:    0.0000
     atom:   40    charge:    2.0777    magn:    0.0000    constr:    0.0000
     atom:   41    charge:    2.0869    magn:    0.0000    constr:    0.0000
     atom:   42    charge:    3.1181    magn:   -0.0000    constr:    0.0000
     atom:   43    charge:    2.0841    magn:    0.0001    constr:    0.0000
     atom:   44    charge:    2.0865    magn:    0.0001    constr:    0.0000
     atom:   45    charge:    2.0871    magn:    0.0000    constr:    0.0000
     atom:   46    charge:    3.1171    magn:   -0.0001    constr:    0.0000
     atom:   47    charge:    2.0804    magn:    0.0002    constr:    0.0000
     atom:   48    charge:    2.0835    magn:    0.0001    constr:    0.0000
     atom:   49    charge:    2.0488    magn:   -0.0000    constr:    0.0000
     atom:   50    charge:    1.2590    magn:   -0.0000    constr:    0.0000
     atom:   51    charge:    1.2857    magn:    0.0000    constr:    0.0000

     total cpu time spent up to now is     1159.7 secs

     total energy              =   -3044.95495401 Ry
     Harris-Foulkes estimate   =   -3044.96130274 Ry
     estimated scf accuracy    <       0.01136399 Ry

     total magnetization       =     0.00 Bohr mag/cell
     absolute magnetization    =     0.00 Bohr mag/cell

     iteration #  4     ecut=    40.42 Ry     beta=0.10
     Davidson diagonalization with overlap
     ethr =  2.84E-06,  avg # of iterations =  4.5

     negative rho (up, down):  1.159E-02 1.159E-02
 
     Magnetic moment per site:
     atom:    1    charge:    3.1250    magn:   -0.0001    constr:    0.0000
     atom:    2    charge:    2.0894    magn:    0.0001    constr:    0.0000
     atom:    3    charge:    3.1196    magn:   -0.0000    constr:    0.0000
     atom:    4    charge:    2.0870    magn:    0.0000    constr:    0.0000
     atom:    5    charge:    3.1170    magn:   -0.0000    constr:    0.0000
     atom:    6    charge:    2.0919    magn:    0.0000    constr:    0.0000
     atom:    7    charge:    3.1175    magn:   -0.0000    constr:    0.0000
     atom:    8    charge:    2.0816    magn:    0.0000    constr:    0.0000
     atom:    9    charge:    3.1250    magn:   -0.0001    constr:    0.0000
     atom:   10    charge:    2.0894    magn:    0.0001    constr:    0.0000
     atom:   11    charge:    3.1196    magn:   -0.0000    constr:    0.0000
     atom:   12    charge:    2.0870    magn:    0.0000    constr:    0.0000
     atom:   13    charge:    3.1148    magn:   -0.0000    constr:    0.0000
     atom:   14    charge:    2.0909    magn:    0.0000    constr:    0.0000
     atom:   15    charge:    3.1203    magn:   -0.0000    constr:    0.0000
     atom:   16    charge:    2.0883    magn:    0.0000    constr:    0.0000
     atom:   17    charge:    2.0624    magn:    0.0002    constr:    0.0000
     atom:   18    charge:    3.1239    magn:   -0.0000    constr:    0.0000
     atom:   19    charge:    2.0878    magn:   -0.0000    constr:    0.0000
     atom:   20    charge:    2.0847    magn:   -0.0000    constr:    0.0000
     atom:   21    charge:    2.0847    magn:   -0.0000    constr:    0.0000
     atom:   22    charge:    3.1197    magn:   -0.0000    constr:    0.0000
     atom:   23    charge:    2.0908    magn:    0.0000    constr:    0.0000
     atom:   24    charge:    2.0777    magn:    0.0000    constr:    0.0000
     atom:   25    charge:    2.0869    magn:    0.0000    constr:    0.0000
     atom:   26    charge:    3.1165    magn:   -0.0000    constr:    0.0000
     atom:   27    charge:    2.0822    magn:    0.0001    constr:    0.0000
     atom:   28    charge:    2.0879    magn:    0.0001    constr:    0.0000
     atom:   29    charge:    2.0877    magn:    0.0000    constr:    0.0000
     atom:   30    charge:    3.1168    magn:   -0.0001    constr:    0.0000
     atom:   31    charge:    2.0810    magn:    0.0002    constr:    0.0000
     atom:   32    charge:    2.0842    magn:    0.0000    constr:    0.0000
     atom:   33    charge:    2.0624    magn:    0.0002    constr:    0.0000
     atom:   34    charge:    3.1239    magn:   -0.0000    constr:    0.0000
     atom:   35    charge:    2.0878    magn:   -0.0000    constr:    0.0000
     atom:   36    charge:    2.0847    magn:   -0.0000    constr:    0.0000
     atom:   37    charge:    2.0847    magn:   -0.0000    constr:    0.0000
     atom:   38    charge:    3.1197    magn:   -0.0000    constr:    0.0000
     atom:   39    charge:    2.0912    magn:    0.0000    constr:    0.0000
     atom:   40    charge:    2.0777    magn:    0.0000    constr:    0.0000
     atom:   41    charge:    2.0869    magn:    0.0000    constr:    0.0000
     atom:   42    charge:    3.1181    magn:   -0.0000    constr:    0.0000
     atom:   43    charge:    2.0839    magn:    0.0001    constr:    0.0000
     atom:   44    charge:    2.0865    magn:    0.0001    constr:    0.0000
     atom:   45    charge:    2.0871    magn:    0.0000    constr:    0.0000
     atom:   46    charge:    3.1171    magn:   -0.0001    constr:    0.0000
     atom:   47    charge:    2.0802    magn:    0.0002    constr:    0.0000
     atom:   48    charge:    2.0835    magn:    0.0001    constr:    0.0000
     atom:   49    charge:    2.0487    magn:   -0.0000    constr:    0.0000
     atom:   50    charge:    1.2590    magn:   -0.0000    constr:    0.0000
     atom:   51    charge:    1.2859    magn:    0.0000    constr:    0.0000

     total cpu time spent up to now is     1390.2 secs

     total energy              =   -3044.95660249 Ry
     Harris-Foulkes estimate   =   -3044.95669017 Ry
     estimated scf accuracy    <       0.00047651 Ry

     total magnetization       =     0.00 Bohr mag/cell
     absolute magnetization    =     0.00 Bohr mag/cell

     iteration #  5     ecut=    40.42 Ry     beta=0.10
     Davidson diagonalization with overlap
     ethr =  1.19E-07,  avg # of iterations =  2.6

     negative rho (up, down):  1.159E-02 1.159E-02
 
     Magnetic moment per site:
     atom:    1    charge:    3.1250    magn:   -0.0001    constr:    0.0000
     atom:    2    charge:    2.0894    magn:    0.0000    constr:    0.0000
     atom:    3    charge:    3.1196    magn:   -0.0000    constr:    0.0000
     atom:    4    charge:    2.0870    magn:    0.0000    constr:    0.0000
     atom:    5    charge:    3.1170    magn:   -0.0000    constr:    0.0000
     atom:    6    charge:    2.0915    magn:    0.0000    constr:    0.0000
     atom:    7    charge:    3.1181    magn:   -0.0000    constr:    0.0000
     atom:    8    charge:    2.0816    magn:    0.0000    constr:    0.0000
     atom:    9    charge:    3.1250    magn:   -0.0001    constr:    0.0000
     atom:   10    charge:    2.0894    magn:    0.0000    constr:    0.0000
     atom:   11    charge:    3.1196    magn:   -0.0000    constr:    0.0000
     atom:   12    charge:    2.0870    magn:    0.0000    constr:    0.0000
     atom:   13    charge:    3.1148    magn:   -0.0000    constr:    0.0000
     atom:   14    charge:    2.0914    magn:    0.0000    constr:    0.0000
     atom:   15    charge:    3.1197    magn:   -0.0000    constr:    0.0000
     atom:   16    charge:    2.0883    magn:    0.0000    constr:    0.0000
     atom:   17    charge:    2.0624    magn:    0.0002    constr:    0.0000
     atom:   18    charge:    3.1239    magn:   -0.0000    constr:    0.0000
     atom:   19    charge:    2.0878    magn:   -0.0000    constr:    0.0000
     atom:   20    charge:    2.0847    magn:   -0.0000    constr:    0.0000
     atom:   21    charge:    2.0847    magn:   -0.0000    constr:    0.0000
     atom:   22    charge:    3.1197    magn:   -0.0000    constr:    0.0000
     atom:   23    charge:    2.0908    magn:    0.0000    constr:    0.0000
     atom:   24    charge:    2.0777    magn:    0.0000    constr:    0.0000
     atom:   25    charge:    2.0869    magn:    0.0000    constr:    0.0000
     atom:   26    charge:    3.1165    magn:   -0.0000    constr:    0.0000
     atom:   27    charge:    2.0826    magn:    0.0001    constr:    0.0000
     atom:   28    charge:    2.0879    magn:    0.0000    constr:    0.0000
     atom:   29    charge:    2.0877    magn:    0.0000    constr:    0.0000
     atom:   30    charge:    3.1168    magn:   -0.0001    constr:    0.0000
     atom:   31    charge:    2.0814    magn:    0.0001    constr:    0.0000
     atom:   32    charge:    2.0842    magn:    0.0000    constr:    0.0000
     atom:   33    charge:    2.0624    magn:    0.0002    constr:    0.0000
     atom:   34    charge:    3.1239    magn:   -0.0000    constr:    0.0000
     atom:   35    charge:    2.0878    magn:   -0.0000    constr:    0.0000
     atom:   36    charge:    2.0847    magn:   -0.0000    constr:    0.0000
     atom:   37    charge:    2.0847    magn:   -0.0000    constr:    0.0000
     atom:   38    charge:    3.1197    magn:   -0.0000    constr:    0.0000
     atom:   39    charge:    2.0912    magn:    0.0000    constr:    0.0000
     atom:   40    charge:    2.0777    magn:    0.0000    constr:    0.0000
     atom:   41    charge:    2.0869    magn:    0.0000    constr:    0.0000
     atom:   42    charge:    3.1181    magn:   -0.0000    constr:    0.0000
     atom:   43    charge:    2.0836    magn:    0.0001    constr:    0.0000
     atom:   44    charge:    2.0865    magn:    0.0000    constr:    0.0000
     atom:   45    charge:    2.0871    magn:    0.0000    constr:    0.0000
     atom:   46    charge:    3.1171    magn:   -0.0001    constr:    0.0000
     atom:   47    charge:    2.0798    magn:    0.0001    constr:    0.0000
     atom:   48    charge:    2.0836    magn:    0.0001    constr:    0.0000
     atom:   49    charge:    2.0487    magn:    0.0000    constr:    0.0000
     atom:   50    charge:    1.2590    magn:   -0.0000    constr:    0.0000
     atom:   51    charge:    1.2861    magn:    0.0000    constr:    0.0000

     total cpu time spent up to now is     1584.4 secs

     total energy              =   -3044.95652544 Ry
     Harris-Foulkes estimate   =   -3044.95661803 Ry
     estimated scf accuracy    <       0.00024905 Ry

     total magnetization       =     0.00 Bohr mag/cell
     absolute magnetization    =     0.00 Bohr mag/cell

     iteration #  6     ecut=    40.42 Ry     beta=0.10
     Davidson diagonalization with overlap
     ethr =  6.23E-08,  avg # of iterations =  2.0

     negative rho (up, down):  1.159E-02 1.159E-02
 
     Magnetic moment per site:
     atom:    1    charge:    3.1250    magn:   -0.0001    constr:    0.0000
     atom:    2    charge:    2.0894    magn:    0.0000    constr:    0.0000
     atom:    3    charge:    3.1196    magn:   -0.0000    constr:    0.0000
     atom:    4    charge:    2.0870    magn:    0.0000    constr:    0.0000
     atom:    5    charge:    3.1170    magn:   -0.0000    constr:    0.0000
     atom:    6    charge:    2.0917    magn:    0.0000    constr:    0.0000
     atom:    7    charge:    3.1184    magn:   -0.0000    constr:    0.0000
     atom:    8    charge:    2.0816    magn:    0.0000    constr:    0.0000
     atom:    9    charge:    3.1250    magn:   -0.0001    constr:    0.0000
     atom:   10    charge:    2.0894    magn:    0.0000    constr:    0.0000
     atom:   11    charge:    3.1196    magn:   -0.0000    constr:    0.0000
     atom:   12    charge:    2.0870    magn:    0.0000    constr:    0.0000
     atom:   13    charge:    3.1148    magn:   -0.0000    constr:    0.0000
     atom:   14    charge:    2.0911    magn:    0.0000    constr:    0.0000
     atom:   15    charge:    3.1195    magn:   -0.0000    constr:    0.0000
     atom:   16    charge:    2.0883    magn:    0.0000    constr:    0.0000
     atom:   17    charge:    2.0624    magn:    0.0001    constr:    0.0000
     atom:   18    charge:    3.1239    magn:   -0.0000    constr:    0.0000
     atom:   19    charge:    2.0878    magn:   -0.0000    constr:    0.0000
     atom:   20    charge:    2.0847    magn:   -0.0000    constr:    0.0000
     atom:   21    charge:    2.0847    magn:   -0.0000    constr:    0.0000
     atom:   22    charge:    3.1197    magn:   -0.0000    constr:    0.0000
     atom:   23    charge:    2.0909    magn:    0.0000    constr:    0.0000
     atom:   24    charge:    2.0777    magn:    0.0000    constr:    0.0000
     atom:   25    charge:    2.0869    magn:    0.0000    constr:    0.0000
     atom:   26    charge:    3.1165    magn:   -0.0000    constr:    0.0000
     atom:   27    charge:    2.0824    magn:    0.0001    constr:    0.0000
     atom:   28    charge:    2.0879    magn:    0.0000    constr:    0.0000
     atom:   29    charge:    2.0877    magn:    0.0000    constr:    0.0000
     atom:   30    charge:    3.1168    magn:   -0.0000    constr:    0.0000
     atom:   31    charge:    2.0815    magn:    0.0001    constr:    0.0000
     atom:   32    charge:    2.0843    magn:    0.0000    constr:    0.0000
     atom:   33    charge:    2.0624    magn:    0.0001    constr:    0.0000
     atom:   34    charge:    3.1239    magn:   -0.0000    constr:    0.0000
     atom:   35    charge:    2.0878    magn:   -0.0000    constr:    0.0000
     atom:   36    charge:    2.0847    magn:   -0.0000    constr:    0.0000
     atom:   37    charge:    2.0847    magn:   -0.0000    constr:    0.0000
     atom:   38    charge:    3.1197    magn:   -0.0000    constr:    0.0000
     atom:   39    charge:    2.0912    magn:    0.0000    constr:    0.0000
     atom:   40    charge:    2.0777    magn:    0.0000    constr:    0.0000
     atom:   41    charge:    2.0869    magn:    0.0000    constr:    0.0000
     atom:   42    charge:    3.1181    magn:   -0.0000    constr:    0.0000
     atom:   43    charge:    2.0837    magn:    0.0001    constr:    0.0000
     atom:   44    charge:    2.0865    magn:    0.0000    constr:    0.0000
     atom:   45    charge:    2.0871    magn:    0.0000    constr:    0.0000
     atom:   46    charge:    3.1171    magn:   -0.0000    constr:    0.0000
     atom:   47    charge:    2.0797    magn:    0.0001    constr:    0.0000
     atom:   48    charge:    2.0835    magn:    0.0000    constr:    0.0000
     atom:   49    charge:    2.0490    magn:    0.0000    constr:    0.0000
     atom:   50    charge:    1.2590    magn:   -0.0000    constr:    0.0000
     atom:   51    charge:    1.2860    magn:    0.0000    constr:    0.0000

     total cpu time spent up to now is     1771.0 secs

     total energy              =   -3044.95653915 Ry
     Harris-Foulkes estimate   =   -3044.95654934 Ry
     estimated scf accuracy    <       0.00004536 Ry

     total magnetization       =     0.00 Bohr mag/cell
     absolute magnetization    =     0.00 Bohr mag/cell

     iteration #  7     ecut=    40.42 Ry     beta=0.10
     Davidson diagonalization with overlap
     ethr =  1.13E-08,  avg # of iterations =  2.0

     negative rho (up, down):  1.159E-02 1.159E-02
 
     Magnetic moment per site:
     atom:    1    charge:    3.1250    magn:   -0.0000    constr:    0.0000
     atom:    2    charge:    2.0894    magn:    0.0000    constr:    0.0000
     atom:    3    charge:    3.1196    magn:   -0.0000    constr:    0.0000
     atom:    4    charge:    2.0870    magn:    0.0000    constr:    0.0000
     atom:    5    charge:    3.1170    magn:   -0.0000    constr:    0.0000
     atom:    6    charge:    2.0917    magn:    0.0000    constr:    0.0000
     atom:    7    charge:    3.1185    magn:   -0.0000    constr:    0.0000
     atom:    8    charge:    2.0816    magn:    0.0000    constr:    0.0000
     atom:    9    charge:    3.1250    magn:   -0.0000    constr:    0.0000
     atom:   10    charge:    2.0894    magn:    0.0000    constr:    0.0000
     atom:   11    charge:    3.1196    magn:   -0.0000    constr:    0.0000
     atom:   12    charge:    2.0870    magn:    0.0000    constr:    0.0000
     atom:   13    charge:    3.1148    magn:   -0.0000    constr:    0.0000
     atom:   14    charge:    2.0912    magn:    0.0000    constr:    0.0000
     atom:   15    charge:    3.1194    magn:   -0.0000    constr:    0.0000
     atom:   16    charge:    2.0883    magn:    0.0000    constr:    0.0000
     atom:   17    charge:    2.0624    magn:    0.0001    constr:    0.0000
     atom:   18    charge:    3.1239    magn:   -0.0000    constr:    0.0000
     atom:   19    charge:    2.0878    magn:   -0.0000    constr:    0.0000
     atom:   20    charge:    2.0847    magn:   -0.0000    constr:    0.0000
     atom:   21    charge:    2.0847    magn:   -0.0000    constr:    0.0000
     atom:   22    charge:    3.1197    magn:   -0.0000    constr:    0.0000
     atom:   23    charge:    2.0909    magn:    0.0000    constr:    0.0000
     atom:   24    charge:    2.0777    magn:    0.0000    constr:    0.0000
     atom:   25    charge:    2.0869    magn:    0.0000    constr:    0.0000
     atom:   26    charge:    3.1165    magn:   -0.0000    constr:    0.0000
     atom:   27    charge:    2.0824    magn:    0.0000    constr:    0.0000
     atom:   28    charge:    2.0879    magn:    0.0000    constr:    0.0000
     atom:   29    charge:    2.0877    magn:    0.0000    constr:    0.0000
     atom:   30    charge:    3.1168    magn:   -0.0000    constr:    0.0000
     atom:   31    charge:    2.0816    magn:    0.0001    constr:    0.0000
     atom:   32    charge:    2.0843    magn:    0.0000    constr:    0.0000
     atom:   33    charge:    2.0624    magn:    0.0001    constr:    0.0000
     atom:   34    charge:    3.1239    magn:   -0.0000    constr:    0.0000
     atom:   35    charge:    2.0878    magn:   -0.0000    constr:    0.0000
     atom:   36    charge:    2.0847    magn:   -0.0000    constr:    0.0000
     atom:   37    charge:    2.0847    magn:   -0.0000    constr:    0.0000
     atom:   38    charge:    3.1197    magn:   -0.0000    constr:    0.0000
     atom:   39    charge:    2.0912    magn:    0.0000    constr:    0.0000
     atom:   40    charge:    2.0777    magn:    0.0000    constr:    0.0000
     atom:   41    charge:    2.0869    magn:    0.0000    constr:    0.0000
     atom:   42    charge:    3.1181    magn:   -0.0000    constr:    0.0000
     atom:   43    charge:    2.0837    magn:    0.0000    constr:    0.0000
     atom:   44    charge:    2.0865    magn:    0.0000    constr:    0.0000
     atom:   45    charge:    2.0871    magn:    0.0000    constr:    0.0000
     atom:   46    charge:    3.1171    magn:   -0.0000    constr:    0.0000
     atom:   47    charge:    2.0796    magn:    0.0001    constr:    0.0000
     atom:   48    charge:    2.0835    magn:    0.0000    constr:    0.0000
     atom:   49    charge:    2.0491    magn:    0.0000    constr:    0.0000
     atom:   50    charge:    1.2590    magn:   -0.0000    constr:    0.0000
     atom:   51    charge:    1.2860    magn:    0.0000    constr:    0.0000

     total cpu time spent up to now is     1956.2 secs

     total energy              =   -3044.95654410 Ry
     Harris-Foulkes estimate   =   -3044.95654355 Ry
     estimated scf accuracy    <       0.00000848 Ry

     total magnetization       =     0.00 Bohr mag/cell
     absolute magnetization    =     0.00 Bohr mag/cell

     iteration #  8     ecut=    40.42 Ry     beta=0.10
     Davidson diagonalization with overlap
     ethr =  2.12E-09,  avg # of iterations =  2.0

     negative rho (up, down):  1.159E-02 1.159E-02
 
     Magnetic moment per site:
     atom:    1    charge:    3.1250    magn:   -0.0000    constr:    0.0000
     atom:    2    charge:    2.0894    magn:    0.0000    constr:    0.0000
     atom:    3    charge:    3.1196    magn:   -0.0000    constr:    0.0000
     atom:    4    charge:    2.0870    magn:    0.0000    constr:    0.0000
     atom:    5    charge:    3.1170    magn:   -0.0000    constr:    0.0000
     atom:    6    charge:    2.0917    magn:    0.0000    constr:    0.0000
     atom:    7    charge:    3.1185    magn:   -0.0000    constr:    0.0000
     atom:    8    charge:    2.0816    magn:    0.0000    constr:    0.0000
     atom:    9    charge:    3.1250    magn:   -0.0000    constr:    0.0000
     atom:   10    charge:    2.0894    magn:    0.0000    constr:    0.0000
     atom:   11    charge:    3.1196    magn:   -0.0000    constr:    0.0000
     atom:   12    charge:    2.0870    magn:    0.0000    constr:    0.0000
     atom:   13    charge:    3.1148    magn:   -0.0000    constr:    0.0000
     atom:   14    charge:    2.0911    magn:    0.0000    constr:    0.0000
     atom:   15    charge:    3.1194    magn:   -0.0000    constr:    0.0000
     atom:   16    charge:    2.0883    magn:    0.0000    constr:    0.0000
     atom:   17    charge:    2.0624    magn:    0.0001    constr:    0.0000
     atom:   18    charge:    3.1239    magn:   -0.0000    constr:    0.0000
     atom:   19    charge:    2.0878    magn:   -0.0000    constr:    0.0000
     atom:   20    charge:    2.0847    magn:   -0.0000    constr:    0.0000
     atom:   21    charge:    2.0847    magn:   -0.0000    constr:    0.0000
     atom:   22    charge:    3.1197    magn:   -0.0000    constr:    0.0000
     atom:   23    charge:    2.0908    magn:    0.0000    constr:    0.0000
     atom:   24    charge:    2.0777    magn:    0.0000    constr:    0.0000
     atom:   25    charge:    2.0869    magn:    0.0000    constr:    0.0000
     atom:   26    charge:    3.1165    magn:   -0.0000    constr:    0.0000
     atom:   27    charge:    2.0823    magn:    0.0000    constr:    0.0000
     atom:   28    charge:    2.0879    magn:    0.0000    constr:    0.0000
     atom:   29    charge:    2.0877    magn:    0.0000    constr:    0.0000
     atom:   30    charge:    3.1168    magn:   -0.0000    constr:    0.0000
     atom:   31    charge:    2.0816    magn:    0.0001    constr:    0.0000
     atom:   32    charge:    2.0843    magn:    0.0000    constr:    0.0000
     atom:   33    charge:    2.0624    magn:    0.0001    constr:    0.0000
     atom:   34    charge:    3.1239    magn:   -0.0000    constr:    0.0000
     atom:   35    charge:    2.0878    magn:   -0.0000    constr:    0.0000
     atom:   36    charge:    2.0847    magn:   -0.0000    constr:    0.0000
     atom:   37    charge:    2.0847    magn:   -0.0000    constr:    0.0000
     atom:   38    charge:    3.1197    magn:   -0.0000    constr:    0.0000
     atom:   39    charge:    2.0912    magn:    0.0000    constr:    0.0000
     atom:   40    charge:    2.0777    magn:    0.0000    constr:    0.0000
     atom:   41    charge:    2.0869    magn:    0.0000    constr:    0.0000
     atom:   42    charge:    3.1181    magn:   -0.0000    constr:    0.0000
     atom:   43    charge:    2.0838    magn:    0.0000    constr:    0.0000
     atom:   44    charge:    2.0865    magn:    0.0000    constr:    0.0000
     atom:   45    charge:    2.0871    magn:    0.0000    constr:    0.0000
     atom:   46    charge:    3.1171    magn:   -0.0000    constr:    0.0000
     atom:   47    charge:    2.0796    magn:    0.0001    constr:    0.0000
     atom:   48    charge:    2.0835    magn:    0.0000    constr:    0.0000
     atom:   49    charge:    2.0491    magn:    0.0000    constr:    0.0000
     atom:   50    charge:    1.2590    magn:   -0.0000    constr:    0.0000
     atom:   51    charge:    1.2859    magn:    0.0000    constr:    0.0000

     total cpu time spent up to now is     2141.5 secs

     total energy              =   -3044.95654484 Ry
     Harris-Foulkes estimate   =   -3044.95654462 Ry
     estimated scf accuracy    <       0.00000425 Ry

     total magnetization       =     0.00 Bohr mag/cell
     absolute magnetization    =     0.00 Bohr mag/cell

     iteration #  9     ecut=    40.42 Ry     beta=0.10
     Davidson diagonalization with overlap
     ethr =  1.06E-09,  avg # of iterations =  2.0

     negative rho (up, down):  1.159E-02 1.159E-02
 
     Magnetic moment per site:
     atom:    1    charge:    3.1250    magn:   -0.0000    constr:    0.0000
     atom:    2    charge:    2.0894    magn:    0.0000    constr:    0.0000
     atom:    3    charge:    3.1196    magn:   -0.0000    constr:    0.0000
     atom:    4    charge:    2.0870    magn:    0.0000    constr:    0.0000
     atom:    5    charge:    3.1170    magn:   -0.0000    constr:    0.0000
     atom:    6    charge:    2.0917    magn:    0.0000    constr:    0.0000
     atom:    7    charge:    3.1185    magn:   -0.0000    constr:    0.0000
     atom:    8    charge:    2.0816    magn:    0.0000    constr:    0.0000
     atom:    9    charge:    3.1250    magn:   -0.0000    constr:    0.0000
     atom:   10    charge:    2.0894    magn:    0.0000    constr:    0.0000
     atom:   11    charge:    3.1196    magn:   -0.0000    constr:    0.0000
     atom:   12    charge:    2.0870    magn:    0.0000    constr:    0.0000
     atom:   13    charge:    3.1148    magn:   -0.0000    constr:    0.0000
     atom:   14    charge:    2.0911    magn:    0.0000    constr:    0.0000
     atom:   15    charge:    3.1194    magn:   -0.0000    constr:    0.0000
     atom:   16    charge:    2.0883    magn:    0.0000    constr:    0.0000
     atom:   17    charge:    2.0624    magn:    0.0001    constr:    0.0000
     atom:   18    charge:    3.1239    magn:   -0.0000    constr:    0.0000
     atom:   19    charge:    2.0878    magn:   -0.0000    constr:    0.0000
     atom:   20    charge:    2.0847    magn:   -0.0000    constr:    0.0000
     atom:   21    charge:    2.0847    magn:   -0.0000    constr:    0.0000
     atom:   22    charge:    3.1197    magn:   -0.0000    constr:    0.0000
     atom:   23    charge:    2.0908    magn:    0.0000    constr:    0.0000
     atom:   24    charge:    2.0777    magn:    0.0000    constr:    0.0000
     atom:   25    charge:    2.0869    magn:    0.0000    constr:    0.0000
     atom:   26    charge:    3.1165    magn:   -0.0000    constr:    0.0000
     atom:   27    charge:    2.0824    magn:    0.0000    constr:    0.0000
     atom:   28    charge:    2.0879    magn:    0.0000    constr:    0.0000
     atom:   29    charge:    2.0877    magn:    0.0000    constr:    0.0000
     atom:   30    charge:    3.1168    magn:   -0.0000    constr:    0.0000
     atom:   31    charge:    2.0815    magn:    0.0000    constr:    0.0000
     atom:   32    charge:    2.0842    magn:    0.0000    constr:    0.0000
     atom:   33    charge:    2.0624    magn:    0.0001    constr:    0.0000
     atom:   34    charge:    3.1239    magn:   -0.0000    constr:    0.0000
     atom:   35    charge:    2.0878    magn:   -0.0000    constr:    0.0000
     atom:   36    charge:    2.0847    magn:   -0.0000    constr:    0.0000
     atom:   37    charge:    2.0847    magn:   -0.0000    constr:    0.0000
     atom:   38    charge:    3.1197    magn:   -0.0000    constr:    0.0000
     atom:   39    charge:    2.0912    magn:    0.0000    constr:    0.0000
     atom:   40    charge:    2.0777    magn:    0.0000    constr:    0.0000
     atom:   41    charge:    2.0869    magn:    0.0000    constr:    0.0000
     atom:   42    charge:    3.1181    magn:   -0.0000    constr:    0.0000
     atom:   43    charge:    2.0838    magn:    0.0000    constr:    0.0000
     atom:   44    charge:    2.0865    magn:    0.0000    constr:    0.0000
     atom:   45    charge:    2.0871    magn:    0.0000    constr:    0.0000
     atom:   46    charge:    3.1171    magn:   -0.0000    constr:    0.0000
     atom:   47    charge:    2.0797    magn:    0.0000    constr:    0.0000
     atom:   48    charge:    2.0835    magn:    0.0000    constr:    0.0000
     atom:   49    charge:    2.0492    magn:    0.0000    constr:    0.0000
     atom:   50    charge:    1.2590    magn:   -0.0000    constr:    0.0000
     atom:   51    charge:    1.2859    magn:    0.0000    constr:    0.0000

     total cpu time spent up to now is     2327.0 secs

     total energy              =   -3044.95654553 Ry
     Harris-Foulkes estimate   =   -3044.95654511 Ry
     estimated scf accuracy    <       0.00000168 Ry

     total magnetization       =     0.00 Bohr mag/cell
     absolute magnetization    =     0.00 Bohr mag/cell

     iteration # 10     ecut=    40.42 Ry     beta=0.10
     Davidson diagonalization with overlap
     ethr =  4.20E-10,  avg # of iterations =  2.0

     negative rho (up, down):  1.158E-02 1.158E-02
 
     Magnetic moment per site:
     atom:    1    charge:    3.1250    magn:   -0.0000    constr:    0.0000
     atom:    2    charge:    2.0894    magn:    0.0000    constr:    0.0000
     atom:    3    charge:    3.1196    magn:   -0.0000    constr:    0.0000
     atom:    4    charge:    2.0870    magn:    0.0000    constr:    0.0000
     atom:    5    charge:    3.1170    magn:   -0.0000    constr:    0.0000
     atom:    6    charge:    2.0916    magn:    0.0000    constr:    0.0000
     atom:    7    charge:    3.1185    magn:   -0.0000    constr:    0.0000
     atom:    8    charge:    2.0816    magn:    0.0000    constr:    0.0000
     atom:    9    charge:    3.1250    magn:   -0.0000    constr:    0.0000
     atom:   10    charge:    2.0894    magn:    0.0000    constr:    0.0000
     atom:   11    charge:    3.1196    magn:   -0.0000    constr:    0.0000
     atom:   12    charge:    2.0870    magn:    0.0000    constr:    0.0000
     atom:   13    charge:    3.1148    magn:   -0.0000    constr:    0.0000
     atom:   14    charge:    2.0912    magn:    0.0000    constr:    0.0000
     atom:   15    charge:    3.1194    magn:   -0.0000    constr:    0.0000
     atom:   16    charge:    2.0883    magn:    0.0000    constr:    0.0000
     atom:   17    charge:    2.0624    magn:    0.0000    constr:    0.0000
     atom:   18    charge:    3.1239    magn:   -0.0000    constr:    0.0000
     atom:   19    charge:    2.0878    magn:   -0.0000    constr:    0.0000
     atom:   20    charge:    2.0847    magn:   -0.0000    constr:    0.0000
     atom:   21    charge:    2.0847    magn:   -0.0000    constr:    0.0000
     atom:   22    charge:    3.1197    magn:   -0.0000    constr:    0.0000
     atom:   23    charge:    2.0909    magn:    0.0000    constr:    0.0000
     atom:   24    charge:    2.0777    magn:    0.0000    constr:    0.0000
     atom:   25    charge:    2.0869    magn:    0.0000    constr:    0.0000
     atom:   26    charge:    3.1165    magn:   -0.0000    constr:    0.0000
     atom:   27    charge:    2.0824    magn:    0.0000    constr:    0.0000
     atom:   28    charge:    2.0879    magn:    0.0000    constr:    0.0000
     atom:   29    charge:    2.0877    magn:    0.0000    constr:    0.0000
     atom:   30    charge:    3.1168    magn:   -0.0000    constr:    0.0000
     atom:   31    charge:    2.0816    magn:    0.0000    constr:    0.0000
     atom:   32    charge:    2.0843    magn:    0.0000    constr:    0.0000
     atom:   33    charge:    2.0624    magn:    0.0000    constr:    0.0000
     atom:   34    charge:    3.1239    magn:   -0.0000    constr:    0.0000
     atom:   35    charge:    2.0878    magn:   -0.0000    constr:    0.0000
     atom:   36    charge:    2.0847    magn:   -0.0000    constr:    0.0000
     atom:   37    charge:    2.0847    magn:   -0.0000    constr:    0.0000
     atom:   38    charge:    3.1197    magn:   -0.0000    constr:    0.0000
     atom:   39    charge:    2.0912    magn:    0.0000    constr:    0.0000
     atom:   40    charge:    2.0777    magn:    0.0000    constr:    0.0000
     atom:   41    charge:    2.0869    magn:    0.0000    constr:    0.0000
     atom:   42    charge:    3.1181    magn:   -0.0000    constr:    0.0000
     atom:   43    charge:    2.0837    magn:    0.0000    constr:    0.0000
     atom:   44    charge:    2.0865    magn:    0.0000    constr:    0.0000
     atom:   45    charge:    2.0871    magn:    0.0000    constr:    0.0000
     atom:   46    charge:    3.1171    magn:   -0.0000    constr:    0.0000
     atom:   47    charge:    2.0796    magn:    0.0000    constr:    0.0000
     atom:   48    charge:    2.0835    magn:    0.0000    constr:    0.0000
     atom:   49    charge:    2.0491    magn:    0.0000    constr:    0.0000
     atom:   50    charge:    1.2590    magn:   -0.0000    constr:    0.0000
     atom:   51    charge:    1.2860    magn:    0.0000    constr:    0.0000

     total cpu time spent up to now is     2512.8 secs

     End of self-consistent calculation

 ------ SPIN UP ------------


          k = 0.0000 0.0000 0.0000 ( 34665 PWs)   bands (ev):

   -57.8232 -57.7883 -57.5132 -57.4576 -57.3892 -57.3531 -57.2786 -57.2433
   -57.1810 -57.1457 -57.1177 -57.0823 -56.8843 -56.8120 -56.2853 -56.2500
   -34.2596 -34.1044 -34.0758 -34.0601 -34.0248 -33.9305 -33.8697 -33.8650
   -33.8274 -33.7720 -33.7330 -33.7230 -33.7196 -33.6880 -33.6723 -33.6685
   -33.6494 -33.6399 -33.6186 -33.5571 -33.5259 -33.4601 -33.4600 -33.4393
   -33.4323 -33.4298 -33.3881 -33.3834 -33.3789 -33.3610 -33.3565 -33.3363
   -33.3136 -33.3075 -33.2800 -33.2744 -33.2489 -33.1455 -33.1406 -33.0838
   -33.0394 -32.9386 -32.7040 -32.6365 -32.6104 -32.5080 -32.4162 -32.3080
   -24.2461 -21.0057 -18.1766 -17.9756 -17.7524 -17.6304 -17.4960 -17.4948
   -17.2128 -17.1921 -17.1467 -17.0547 -17.0518 -17.0101 -16.9944 -16.9215
   -16.8741 -16.8623 -16.8400 -16.7993 -16.7372 -16.6906 -16.5728 -16.5497
   -16.5212 -16.5091 -16.4221 -16.3120 -16.2765 -16.2451 -16.1082 -16.0784
   -14.8675 -14.7827  -9.7926  -7.4875  -7.4721  -5.9976  -5.5684  -5.5117
    -5.3609  -5.3527  -5.2954  -4.9980  -4.9387  -4.5886  -4.5848  -4.5493
    -4.5398  -4.4923  -4.3678  -4.2712  -4.2228  -4.2053  -4.1706  -4.1677
    -4.1636  -4.1557  -4.0910  -4.0864  -4.0097  -3.9870  -3.9561  -3.9143
    -3.8809  -3.8077  -3.7740  -3.7496  -3.7202  -3.6440  -3.6229  -3.5468
    -3.5450  -3.5195  -3.4520  -3.3334  -3.2026  -3.1674  -3.0639  -3.0053
    -2.9625  -2.8768  -2.8254  -2.8140  -2.7430  -2.7414  -2.7257  -2.6001
    -2.5628  -2.5075  -2.4355  -2.3996  -2.3716  -2.3530  -2.3248  -2.2829
    -2.2776  -2.2481  -2.2115  -2.1798  -2.1758  -2.0504  -1.9933  -1.8941
    -1.7513  -1.7494  -1.7226  -1.6811  -1.6535  -1.6421  -1.5647  -1.5431
    -1.4431  -1.4336  -1.4101  -1.3989  -1.3858  -1.2842  -1.2332  -1.2233
    -1.2021  -1.1333  -1.0727  -1.0170  -0.9180  -0.7439  -0.7142  -0.7099
    -0.6466  -0.5191  -0.3719  -0.2353  -0.1727  -0.0086   0.1181   0.1332
     1.5187   1.5477   1.8325   1.8696   1.8809   1.9011   2.0686   2.0880
     2.1226   2.2391   2.3581   2.3719   2.4071   2.4262   2.4634   2.4785
     2.5262   2.5636   2.6182   2.6622   2.6674   2.6793   2.7612   2.8062
     2.8676   2.8948   2.9864   2.9950   2.9962   3.0183   3.0645   3.0819
     3.0925   3.0969   3.1047   3.1390   3.2354   3.2976   3.3015   3.3180
     3.3534   3.3832   3.4174   3.5307   3.5339   3.6706   3.8778   3.9842
     3.9937   4.0428   4.0661   4.1799   4.2525   4.4594   4.5348   4.6572
     4.9057   4.9330   5.0113   5.1265   5.2057   5.3893   5.3948   5.4215
     5.4966   5.5819   5.6287   5.6367   5.7147   5.7318   5.7372   5.7553
     5.9216   5.9603   6.0109   6.0202   6.0978   6.1422   6.2038   6.2196
     6.4744   6.6170   6.7692   6.7845   6.8807   7.1634   7.2766   7.2959
     7.9086   7.9875   8.1610   8.4065   8.7030   8.9122   8.9126   8.9525
     9.2115   9.2585   9.2855   9.3534

          k = 0.0000 0.0280 0.0000 ( 34717 PWs)   bands (ev):

   -57.8209 -57.7906 -57.5117 -57.4591 -57.3868 -57.3555 -57.2763 -57.2456
   -57.1787 -57.1481 -57.1153 -57.0846 -56.8830 -56.8132 -56.2829 -56.2524
   -34.2342 -34.1024 -34.0777 -34.0343 -34.0186 -33.9370 -33.8967 -33.8399
   -33.8210 -33.7479 -33.7355 -33.7277 -33.7182 -33.6886 -33.6731 -33.6697
   -33.6469 -33.6159 -33.6121 -33.5501 -33.5348 -33.4853 -33.4578 -33.4490
   -33.4341 -33.4238 -33.4061 -33.3793 -33.3618 -33.3600 -33.3553 -33.3427
   -33.3133 -33.3126 -33.3051 -33.2762 -33.2745 -33.1450 -33.1376 -33.0844
   -33.0437 -32.9668 -32.6783 -32.6347 -32.6122 -32.5018 -32.4225 -32.3355
   -24.2461 -21.0056 -18.1150 -17.9176 -17.6995 -17.5771 -17.4752 -17.4478
   -17.2296 -17.1898 -17.1619 -17.1208 -17.0570 -17.0067 -16.9837 -16.9072
   -16.8914 -16.8457 -16.8303 -16.7996 -16.7679 -16.7481 -16.5969 -16.5396
   -16.5194 -16.5004 -16.4517 -16.3081 -16.2942 -16.2626 -16.1336 -16.1208
   -14.8773 -14.8059  -9.7924  -7.4889  -7.4721  -5.9966  -5.4803  -5.4275
    -5.2834  -5.2727  -5.2181  -4.8801  -4.8636  -4.6128  -4.5835  -4.5160
    -4.4885  -4.4542  -4.3176  -4.2933  -4.2883  -4.2397  -4.2330  -4.1956
    -4.1583  -4.1444  -4.1090  -4.0967  -4.0791  -4.0531  -4.0098  -3.9872
    -3.9293  -3.9230  -3.8625  -3.8040  -3.7374  -3.7223  -3.7015  -3.5670
    -3.4869  -3.4713  -3.3807  -3.3127  -3.1300  -3.0828  -2.9921  -2.9582
    -2.8386  -2.8075  -2.7570  -2.7505  -2.6713  -2.6403  -2.6344  -2.6167
    -2.5701  -2.5585  -2.5203  -2.4548  -2.4147  -2.3477  -2.3227  -2.2816
    -2.2369  -2.2183  -2.2024  -2.1259  -2.0525  -2.0193  -1.9408  -1.8732
    -1.8417  -1.8197  -1.7893  -1.7735  -1.6986  -1.6740  -1.6323  -1.5989
    -1.5580  -1.4953  -1.4657  -1.4093  -1.3891  -1.3577  -1.2766  -1.2374
    -1.1908  -1.1540  -1.0678  -1.0315  -0.9478  -0.9130  -0.8457  -0.7600
    -0.7313  -0.5339  -0.4127  -0.2281  -0.2243   0.0022   0.0726   0.0976
     1.6044   1.6513   1.8615   1.8715   1.9257   2.0015   2.0464   2.1142
     2.1716   2.2672   2.3206   2.3756   2.3779   2.4411   2.4517   2.4831
     2.5170   2.5387   2.5907   2.6321   2.6844   2.7328   2.7694   2.7855
     2.8257   2.8757   2.9399   2.9564   2.9877   3.0190   3.0436   3.0719
     3.0932   3.1030   3.1880   3.2022   3.2548   3.3155   3.3482   3.3996
     3.4163   3.4680   3.5022   3.5071   3.5689   3.6375   3.8282   3.9429
     3.9913   4.0539   4.1313   4.1638   4.1843   4.4023   4.5930   4.7554
     4.9124   5.0110   5.1093   5.1888   5.2099   5.4065   5.4290   5.4795
     5.4909   5.5640   5.5978   5.6222   5.6703   5.6952   5.7335   5.8213
     5.8581   5.9316   5.9770   6.0158   6.0238   6.0275   6.1167   6.2871
     6.4540   6.5435   6.7168   6.7875   6.8092   7.0690   7.2227   7.3716
     7.6838   7.9814   8.1022   8.2891   8.4133   8.7070   8.9966   9.0253
     9.0794   9.2975   9.3583   9.4073

          k = 0.0000 0.0560 0.0000 ( 34721 PWs)   bands (ev):

   -57.8145 -57.7971 -57.5084 -57.4624 -57.3806 -57.3617 -57.2698 -57.2521
   -57.1723 -57.1545 -57.1089 -57.0911 -56.8804 -56.8159 -56.2765 -56.2589
   -34.1644 -34.0971 -34.0827 -34.0015 -33.9697 -33.9637 -33.9544 -33.8050
   -33.7745 -33.7645 -33.7513 -33.7157 -33.7055 -33.6924 -33.6747 -33.6717
   -33.5946 -33.5770 -33.5752 -33.5473 -33.5363 -33.5306 -33.4794 -33.4729
   -33.4525 -33.4388 -33.4074 -33.3813 -33.3749 -33.3604 -33.3576 -33.3535
   -33.3401 -33.3257 -33.3040 -33.3017 -33.2669 -33.1443 -33.1339 -33.0856
   -33.0572 -33.0344 -32.6300 -32.6170 -32.6075 -32.4853 -32.4394 -32.4096
   -24.2460 -21.0055 -17.9435 -17.7575 -17.5597 -17.4477 -17.4280 -17.4225
   -17.3197 -17.2924 -17.1806 -17.0791 -17.0790 -17.0462 -17.0226 -16.9815
   -16.8630 -16.8583 -16.8516 -16.8139 -16.7517 -16.6860 -16.6609 -16.6170
   -16.5324 -16.4726 -16.4470 -16.3312 -16.3218 -16.2816 -16.2458 -16.1833
   -14.8949 -14.8563  -9.7922  -7.4917  -7.4719  -5.9947  -5.2375  -5.1921
    -5.0762  -5.0434  -5.0095  -4.7370  -4.6644  -4.6274  -4.5520  -4.5427
    -4.5145  -4.4984  -4.4689  -4.3914  -4.3592  -4.3516  -4.3283  -4.3239
    -4.2569  -4.2195  -4.1982  -4.1481  -4.1343  -4.0941  -4.0690  -4.0177
    -3.9555  -3.9279  -3.8576  -3.7825  -3.7263  -3.6044  -3.5765  -3.4828
    -3.4205  -3.3869  -3.3661  -3.2698  -3.1743  -3.0260  -2.9774  -2.9639
    -2.9485  -2.8806  -2.7884  -2.7368  -2.6869  -2.6523  -2.6079  -2.4698
    -2.4554  -2.4483  -2.4149  -2.3924  -2.3393  -2.3036  -2.2807  -2.2765
    -2.2044  -2.1814  -2.1000  -2.0695  -2.0471  -2.0377  -2.0108  -1.9890
    -1.9412  -1.9034  -1.8671  -1.7909  -1.7158  -1.6833  -1.6698  -1.6569
    -1.6407  -1.5720  -1.5183  -1.5025  -1.4823  -1.4434  -1.3725  -1.3574
    -1.2818  -1.2410  -1.1676  -1.1419  -1.0637  -0.9990  -0.9287  -0.8955
    -0.7990  -0.7146  -0.5960  -0.3930  -0.0434   0.0128   0.0436   0.0468
     1.7411   1.8861   1.9036   1.9832   2.0138   2.0567   2.1345   2.2006
     2.2207   2.2575   2.2621   2.2752   2.3036   2.3553   2.3783   2.5111
     2.5224   2.5553   2.6436   2.6535   2.6795   2.7373   2.7544   2.7997
     2.8048   2.8270   2.8475   2.9408   2.9610   3.0109   3.0849   3.0946
     3.1112   3.1724   3.1950   3.2206   3.3245   3.3681   3.4085   3.4637
     3.4869   3.5557   3.6145   3.6661   3.6864   3.7213   3.7416   3.8485
     3.9824   3.9953   4.0112   4.0977   4.2374   4.3262   4.7182   4.8441
     5.0301   5.1641   5.2523   5.3007   5.3308   5.3977   5.4039   5.4771
     5.5242   5.5974   5.6107   5.6193   5.6431   5.6920   5.7273   5.7384
     5.7550   5.7930   5.8306   5.8956   5.9797   6.0231   6.1913   6.2992
     6.3712   6.4074   6.6419   6.6489   6.7427   6.9083   7.0163   7.2650
     7.5017   7.6699   7.7748   8.2685   8.4215   8.5999   8.8933   9.0363
     9.1967   9.3504   9.4460   9.5761

          k = 0.0000-0.0840 0.0000 ( 34678 PWs)   bands (ev):

   -57.8058 -57.8058 -57.5065 -57.4643 -57.3745 -57.3679 -57.2611 -57.2608
   -57.1648 -57.1620 -57.1012 -57.0988 -56.8791 -56.8173 -56.2677 -56.2677
   -34.0899 -34.0899 -34.0678 -34.0678 -33.9780 -33.9780 -33.8809 -33.8481
   -33.7880 -33.7697 -33.7176 -33.7108 -33.6952 -33.6780 -33.6706 -33.6592
   -33.5779 -33.5776 -33.5713 -33.5648 -33.5030 -33.5025 -33.4811 -33.4787
   -33.4563 -33.4485 -33.4457 -33.4452 -33.3850 -33.3827 -33.3562 -33.3532
   -33.3440 -33.3417 -33.2975 -33.2954 -33.1998 -33.1663 -33.1410 -33.0905
   -33.0855 -33.0540 -32.6235 -32.6234 -32.5096 -32.5095 -32.4623 -32.4623
   -24.2460 -21.0054 -17.7055 -17.6938 -17.5369 -17.5362 -17.4209 -17.4023
   -17.2471 -17.2410 -17.1797 -17.1790 -17.1445 -17.1413 -16.9656 -16.9655
   -16.9421 -16.9380 -16.7752 -16.7476 -16.7203 -16.7174 -16.6458 -16.6390
   -16.5523 -16.5074 -16.3791 -16.3774 -16.3326 -16.3315 -16.2512 -16.2506
   -14.8930 -14.8930  -9.7921  -7.4931  -7.4717  -5.9938  -4.9261  -4.9237
    -4.8590  -4.8589  -4.8065  -4.7917  -4.7656  -4.7589  -4.7219  -4.7003
    -4.5291  -4.5106  -4.4965  -4.4943  -4.4251  -4.4236  -4.4191  -4.4164
    -4.2606  -4.2217  -4.1590  -4.1576  -4.1456  -4.1235  -4.0104  -3.9541
    -3.9537  -3.9176  -3.8421  -3.7990  -3.6560  -3.6166  -3.4644  -3.4530
    -3.3014  -3.2914  -3.2315  -3.1541  -3.1346  -3.1052  -2.9710  -2.9568
    -2.9464  -2.8857  -2.8608  -2.8211  -2.7158  -2.6901  -2.6689  -2.6512
    -2.6264  -2.6178  -2.5746  -2.4571  -2.4502  -2.4216  -2.1605  -2.1254
    -2.1026  -2.0556  -2.0158  -1.9839  -1.9354  -1.9352  -1.9291  -1.8803
    -1.8714  -1.8671  -1.8490  -1.7926  -1.7781  -1.7118  -1.6324  -1.6318
    -1.5924  -1.5746  -1.5579  -1.5565  -1.5485  -1.5442  -1.5239  -1.4173
    -1.3755  -1.2656  -1.2526  -1.2243  -1.1303  -1.1246  -1.1010  -1.0955
    -0.6850  -0.6352  -0.5978  -0.5924   0.0124   0.0128   0.0495   0.0498
     1.9063   1.9101   2.0083   2.0106   2.0987   2.0989   2.1038   2.1256
     2.2209   2.2209   2.2259   2.2414   2.3393   2.3805   2.4295   2.4320
     2.5233   2.5281   2.5921   2.5927   2.6726   2.7487   2.7601   2.8217
     2.8293   2.8635   2.9032   2.9456   2.9728   2.9929   3.0506   3.0676
     3.0783   3.2103   3.2529   3.3222   3.3290   3.3306   3.3318   3.4773
     3.6163   3.6191   3.6861   3.6996   3.7271   3.7864   3.7879   3.8685
     3.9216   3.9240   3.9874   3.9878   4.1305   4.4136   4.7922   4.8167
     5.1510   5.1692   5.2868   5.3240   5.3819   5.3819   5.4920   5.5180
     5.5521   5.5693   5.5818   5.6399   5.6578   5.6958   5.7043   5.7048
     5.7477   5.8292   5.8369   5.8547   5.9990   6.0012   6.0366   6.0818
     6.4165   6.4211   6.5524   6.5873   6.8551   6.8589   6.9708   6.9747
     7.4566   7.4971   7.6290   8.1932   8.3328   8.6522   9.0394   9.1216
     9.3636   9.4263   9.6112   9.6612

          k = 0.0253 0.0000 0.0000 ( 34707 PWs)   bands (ev):

   -57.8232 -57.7883 -57.5132 -57.4576 -57.3892 -57.3531 -57.2786 -57.2433
   -57.1811 -57.1457 -57.1177 -57.0823 -56.8843 -56.8120 -56.2853 -56.2500
   -34.2599 -34.1044 -34.0759 -34.0601 -34.0241 -33.9305 -33.8698 -33.8657
   -33.8274 -33.7735 -33.7326 -33.7227 -33.7187 -33.6890 -33.6798 -33.6726
   -33.6494 -33.6260 -33.6168 -33.5515 -33.5264 -33.4602 -33.4598 -33.4389
   -33.4323 -33.4299 -33.3875 -33.3868 -33.3789 -33.3665 -33.3553 -33.3363
   -33.3135 -33.3074 -33.2802 -33.2744 -33.2490 -33.1466 -33.1407 -33.0838
   -33.0394 -32.9387 -32.7039 -32.6375 -32.6099 -32.5080 -32.4163 -32.3081
   -24.2461 -21.0056 -18.1483 -17.9341 -17.7120 -17.5926 -17.4955 -17.4913
   -17.2702 -17.2317 -17.1459 -17.0617 -17.0542 -17.0457 -17.0186 -16.9621
   -16.9171 -16.8979 -16.8214 -16.7890 -16.7042 -16.6090 -16.6073 -16.5219
   -16.5184 -16.5152 -16.4649 -16.3124 -16.2668 -16.2457 -16.1077 -16.0784
   -14.8663 -14.7825  -9.7918  -7.4877  -7.4720  -5.9970  -5.5382  -5.3958
    -5.2516  -5.2391  -5.1879  -4.9898  -4.9373  -4.7818  -4.5811  -4.5684
    -4.5163  -4.4935  -4.4452  -4.4376  -4.3347  -4.1990  -4.1884  -4.1687
    -4.0926  -4.0759  -4.0706  -3.9870  -3.9703  -3.9370  -3.8769  -3.8414
    -3.8344  -3.8114  -3.7743  -3.7306  -3.7018  -3.6211  -3.5811  -3.4918
    -3.4619  -3.4245  -3.3364  -3.2610  -3.2183  -3.1572  -3.1376  -3.0394
    -3.0212  -2.9248  -2.8922  -2.8122  -2.7582  -2.7249  -2.7022  -2.6761
    -2.6518  -2.6117  -2.5024  -2.4959  -2.4508  -2.3769  -2.3605  -2.3168
    -2.2538  -2.2166  -2.2142  -2.1291  -2.0990  -2.0313  -1.9371  -1.8964
    -1.8023  -1.7781  -1.7532  -1.7270  -1.7047  -1.6352  -1.6104  -1.4966
    -1.4862  -1.4758  -1.4324  -1.4079  -1.3646  -1.3408  -1.2728  -1.2563
    -1.2311  -1.1183  -1.0964  -0.9952  -0.9606  -0.8993  -0.8112  -0.7724
    -0.6929  -0.5632  -0.3664  -0.2627  -0.2031  -0.0227   0.0755   0.0765
     1.5360   1.6030   1.8801   1.8992   1.9933   2.0093   2.0571   2.1356
     2.2169   2.2461   2.3162   2.3248   2.3683   2.4175   2.4358   2.4515
     2.4656   2.5357   2.5470   2.6071   2.6708   2.6804   2.7109   2.8293
     2.8442   2.8999   2.9967   3.0028   3.0111   3.0776   3.0879   3.0974
     3.1479   3.1888   3.2055   3.2400   3.2946   3.3218   3.3338   3.3866
     3.3940   3.4336   3.4644   3.4961   3.5933   3.6164   3.8084   3.8945
     4.0371   4.0576   4.0831   4.1708   4.2374   4.4127   4.6405   4.6831
     4.7684   4.9281   4.9412   4.9912   5.0114   5.0505   5.2188   5.4947
     5.5676   5.6377   5.7294   5.7394   5.7899   5.8327   5.9421   5.9528
     5.9784   6.0369   6.0400   6.0718   6.1351   6.1499   6.2451   6.3161
     6.4887   6.6319   6.7406   6.7770   6.8847   7.0772   7.1632   7.3205
     7.6210   8.0344   8.1523   8.3448   8.4007   8.7537   8.8272   8.9240
     8.9653   9.2477   9.2921   9.4216

          k = 0.0253 0.0280 0.0000 ( 34687 PWs)   bands (ev):

   -57.8209 -57.7906 -57.5117 -57.4591 -57.3868 -57.3555 -57.2762 -57.2456
   -57.1787 -57.1481 -57.1153 -57.0846 -56.8830 -56.8132 -56.2829 -56.2524
   -34.2345 -34.1024 -34.0777 -34.0343 -34.0179 -33.9369 -33.8968 -33.8405
   -33.8211 -33.7492 -33.7355 -33.7274 -33.7171 -33.6890 -33.6765 -33.6730
   -33.6473 -33.6104 -33.6070 -33.5447 -33.5349 -33.4855 -33.4578 -33.4476
   -33.4341 -33.4239 -33.4069 -33.3825 -33.3644 -33.3614 -33.3547 -33.3427
   -33.3133 -33.3126 -33.3051 -33.2761 -33.2745 -33.1459 -33.1377 -33.0844
   -33.0437 -32.9668 -32.6782 -32.6357 -32.6117 -32.5019 -32.4225 -32.3355
   -24.2461 -21.0056 -18.0881 -17.8771 -17.6606 -17.5407 -17.4747 -17.4426
   -17.2544 -17.2320 -17.2056 -17.0844 -17.0604 -17.0414 -16.9898 -16.9539
   -16.9254 -16.8603 -16.8401 -16.8214 -16.7484 -16.6600 -16.6292 -16.5429
   -16.5088 -16.4979 -16.4819 -16.3079 -16.2850 -16.2631 -16.1333 -16.1212
   -14.8763 -14.8059  -9.7917  -7.4890  -7.4719  -5.9960  -5.4538  -5.3109
    -5.1718  -5.1600  -5.1098  -4.8749  -4.8620  -4.7283  -4.5697  -4.5218
    -4.4756  -4.4453  -4.4152  -4.3556  -4.3227  -4.2854  -4.2238  -4.1955
    -4.1549  -4.1220  -4.0908  -4.0730  -4.0320  -3.9733  -3.9611  -3.9292
    -3.9130  -3.8566  -3.8458  -3.7567  -3.7367  -3.6815  -3.6762  -3.4814
    -3.4536  -3.3889  -3.3401  -3.2796  -3.1640  -3.1055  -3.0687  -2.9348
    -2.8577  -2.8269  -2.8022  -2.7888  -2.7513  -2.6770  -2.6336  -2.6136
    -2.5899  -2.5752  -2.5478  -2.5179  -2.4563  -2.3995  -2.3521  -2.3263
    -2.2652  -2.2470  -2.1951  -2.1043  -2.0631  -2.0331  -1.9931  -1.9081
    -1.8782  -1.8508  -1.7887  -1.7631  -1.7390  -1.7186  -1.6629  -1.6236
    -1.5673  -1.5092  -1.4818  -1.4635  -1.4170  -1.3761  -1.3253  -1.2317
    -1.2062  -1.1999  -1.0550  -0.9967  -0.9763  -0.9084  -0.8875  -0.8694
    -0.7837  -0.5731  -0.4238  -0.2809  -0.2182   0.0067   0.0486   0.0576
     1.5975   1.7241   1.8927   1.9041   2.0200   2.0364   2.1369   2.1721
     2.2339   2.2786   2.3155   2.3298   2.3789   2.3925   2.4089   2.4290
     2.5085   2.5419   2.5790   2.6118   2.6296   2.6798   2.7781   2.8088
     2.8466   2.8905   2.9765   2.9867   2.9949   3.0006   3.0540   3.0914
     3.1679   3.2240   3.2626   3.2687   3.3002   3.3247   3.3759   3.4310
     3.4593   3.4893   3.5165   3.5326   3.5824   3.6301   3.7635   3.8851
     4.0180   4.0471   4.0960   4.1679   4.2232   4.3621   4.6847   4.7695
     4.8206   4.9392   4.9855   5.0295   5.0390   5.1185   5.2720   5.5244
     5.5634   5.5975   5.6455   5.7260   5.7394   5.8210   5.8796   5.9237
     5.9555   5.9973   6.0246   6.0339   6.0504   6.0866   6.2960   6.3138
     6.4730   6.5513   6.7361   6.7697   6.8145   7.0590   7.1152   7.3509
     7.5417   8.0141   8.1436   8.2274   8.3188   8.5242   8.5749   8.8331
     9.0207   9.2739   9.3992   9.4729

          k = 0.0253 0.0560 0.0000 ( 34699 PWs)   bands (ev):

   -57.8145 -57.7971 -57.5084 -57.4624 -57.3806 -57.3617 -57.2698 -57.2521
   -57.1723 -57.1545 -57.1089 -57.0911 -56.8804 -56.8159 -56.2765 -56.2589
   -34.1647 -34.0971 -34.0828 -34.0010 -33.9698 -33.9637 -33.9542 -33.8051
   -33.7748 -33.7647 -33.7514 -33.7149 -33.7055 -33.6926 -33.6762 -33.6730
   -33.5934 -33.5775 -33.5750 -33.5438 -33.5361 -33.5262 -33.4802 -33.4698
   -33.4524 -33.4388 -33.4074 -33.3815 -33.3768 -33.3610 -33.3605 -33.3546
   -33.3402 -33.3263 -33.3040 -33.3016 -33.2668 -33.1449 -33.1340 -33.0860
   -33.0573 -33.0343 -32.6306 -32.6168 -32.6074 -32.4853 -32.4394 -32.4096
   -24.2460 -21.0054 -17.9211 -17.7204 -17.5269 -17.4415 -17.4196 -17.3987
   -17.3107 -17.2951 -17.1843 -17.1221 -17.0840 -17.0319 -17.0071 -16.9891
   -16.8997 -16.8910 -16.8538 -16.8075 -16.7710 -16.7342 -16.6822 -16.5899
   -16.5754 -16.4672 -16.4327 -16.3245 -16.3194 -16.2826 -16.2466 -16.1829
   -14.8943 -14.8564  -9.7914  -7.4918  -7.4717  -5.9943  -5.2227  -5.0765
    -4.9629  -4.9341  -4.9037  -4.7313  -4.6638  -4.6469  -4.5306  -4.5233
    -4.5035  -4.4949  -4.3931  -4.3538  -4.3482  -4.3158  -4.2864  -4.2698
    -4.2256  -4.2110  -4.1913  -4.1554  -4.0884  -4.0727  -4.0619  -4.0071
    -3.9713  -3.9154  -3.8462  -3.8083  -3.7248  -3.6309  -3.5433  -3.4729
    -3.4325  -3.4144  -3.3774  -3.2038  -3.1720  -3.0409  -2.9919  -2.9720
    -2.9432  -2.8712  -2.8012  -2.7676  -2.7110  -2.6704  -2.6325  -2.5825
    -2.5577  -2.5157  -2.4704  -2.4545  -2.4132  -2.3971  -2.3161  -2.2721
    -2.2570  -2.2282  -2.1729  -2.1355  -2.0904  -2.0770  -2.0127  -1.9993
    -1.9470  -1.9254  -1.8731  -1.8362  -1.8192  -1.7779  -1.7241  -1.6930
    -1.6641  -1.5865  -1.5658  -1.4930  -1.4695  -1.4178  -1.3814  -1.3436
    -1.2577  -1.2300  -1.1593  -1.0946  -1.0688  -0.9692  -0.9442  -0.8735
    -0.8203  -0.7351  -0.6016  -0.4047  -0.0420  -0.0013   0.0239   0.0470
     1.7374   1.9120   1.9285   2.0512   2.0574   2.0802   2.1661   2.1774
[...]
    -2.6747  -2.6302  -2.6224  -2.6153  -2.5821  -2.5407  -2.5044  -2.4880
    -2.4872  -2.4242  -2.3839  -2.3712  -2.3336  -2.3028  -2.2581  -2.2574
    -2.2331  -2.1461  -2.1416  -2.1397  -2.0136  -1.9759  -1.8245  -1.7960
    -1.7352  -1.6870  -1.4332  -1.3876  -1.3238  -1.3226  -1.1661  -1.1523
    -1.1452  -1.1436  -1.1182  -1.0867  -1.0415  -0.9062  -0.8897  -0.7586
    -0.7473  -0.7321  -0.6650  -0.6643  -0.0632  -0.0631   0.0745   0.0748
     1.9879   2.0021   2.0445   2.0511   2.0741   2.0767   2.0884   2.0919
     2.3574   2.3695   2.3754   2.3893   2.4522   2.4585   2.5241   2.5392
     2.5597   2.5602   2.6168   2.7191   2.7290   2.8376   2.8503   2.8679
     2.8788   2.9566   3.0306   3.1047   3.1112   3.1640   3.1942   3.2587
     3.2829   3.2983   3.3349   3.3631   3.3964   3.3996   3.4425   3.4771
     3.5594   3.5835   3.6839   3.7296   3.7936   3.8157   3.8176   3.8185
     3.9493   3.9543   3.9739   3.9739   4.2924   4.5518   4.6601   4.6606
     4.7165   4.7385   4.7761   4.7838   4.7854   4.8088   5.0775   5.1069
     5.2301   5.2625   5.6212   5.6358   5.8112   5.8254   5.9415   6.0462
     6.1663   6.2089   6.2154   6.2459   6.4015   6.4167   6.4758   6.5313
     6.5327   6.5457   6.7088   6.7096   6.7646   6.7659   7.0316   7.0857
     7.6424   7.6739   7.8019   7.8130   8.0412   8.0927   8.3303   8.4005
     8.5435   8.6067   8.6859   9.1815

          k =-0.0253 0.0280 0.0000 ( 34687 PWs)   bands (ev):

   -57.8209 -57.7907 -57.5117 -57.4592 -57.3869 -57.3555 -57.2763 -57.2457
   -57.1787 -57.1481 -57.1154 -57.0847 -56.8831 -56.8133 -56.2831 -56.2525
   -34.2345 -34.1024 -34.0777 -34.0344 -34.0179 -33.9369 -33.8968 -33.8405
   -33.8211 -33.7493 -33.7355 -33.7275 -33.7171 -33.6890 -33.6765 -33.6730
   -33.6473 -33.6104 -33.6070 -33.5447 -33.5350 -33.4855 -33.4578 -33.4476
   -33.4341 -33.4239 -33.4069 -33.3825 -33.3644 -33.3615 -33.3548 -33.3427
   -33.3134 -33.3126 -33.3052 -33.2762 -33.2745 -33.1460 -33.1378 -33.0845
   -33.0438 -32.9669 -32.6783 -32.6358 -32.6118 -32.5020 -32.4226 -32.3356
   -24.2461 -21.0056 -18.0881 -17.8771 -17.6605 -17.5407 -17.4746 -17.4424
   -17.2544 -17.2323 -17.2056 -17.0845 -17.0605 -17.0415 -16.9904 -16.9539
   -16.9254 -16.8603 -16.8401 -16.8210 -16.7474 -16.6600 -16.6295 -16.5430
   -16.5088 -16.4977 -16.4819 -16.3078 -16.2850 -16.2630 -16.1332 -16.1212
   -14.8760 -14.8057  -9.7917  -7.4891  -7.4719  -5.9961  -5.4537  -5.3110
    -5.1716  -5.1597  -5.1098  -4.8750  -4.8620  -4.7292  -4.5690  -4.5222
    -4.4754  -4.4450  -4.4149  -4.3556  -4.3229  -4.2856  -4.2263  -4.1951
    -4.1552  -4.1227  -4.0911  -4.0731  -4.0329  -3.9727  -3.9607  -3.9298
    -3.9126  -3.8565  -3.8449  -3.7572  -3.7369  -3.6818  -3.6755  -3.4797
    -3.4520  -3.3859  -3.3361  -3.2825  -3.1635  -3.1057  -3.0686  -2.9372
    -2.8474  -2.8436  -2.8000  -2.7869  -2.7517  -2.6762  -2.6307  -2.6114
    -2.5931  -2.5746  -2.5486  -2.5156  -2.4578  -2.4008  -2.3501  -2.3275
    -2.2635  -2.2471  -2.1958  -2.1077  -2.0625  -2.0328  -1.9926  -1.9125
    -1.8735  -1.8542  -1.7922  -1.7622  -1.7399  -1.7172  -1.6626  -1.6241
    -1.5640  -1.5071  -1.4818  -1.4615  -1.4182  -1.3777  -1.3273  -1.2319
    -1.2084  -1.2012  -1.0550  -0.9943  -0.9734  -0.9107  -0.8872  -0.8658
    -0.7840  -0.5732  -0.4237  -0.2809  -0.2181   0.0069   0.0487   0.0578
     1.5975   1.7241   1.8927   1.9045   2.0198   2.0386   2.1375   2.1739
     2.2363   2.2774   2.3140   2.3253   2.3804   2.3939   2.4088   2.4318
     2.5072   2.5415   2.5775   2.6086   2.6309   2.6819   2.7731   2.8093
     2.8497   2.8905   2.9756   2.9853   2.9937   2.9987   3.0545   3.0897
     3.1703   3.2279   3.2630   3.2692   3.3005   3.3241   3.3756   3.4243
     3.4619   3.4931   3.5163   3.5328   3.5806   3.6291   3.7641   3.8887
     4.0186   4.0474   4.0920   4.1678   4.2227   4.3620   4.6846   4.7665
     4.8226   4.9385   4.9841   5.0290   5.0394   5.1167   5.2701   5.5241
     5.5623   5.5980   5.6455   5.7258   5.7394   5.8194   5.8858   5.9259
     5.9544   5.9965   6.0235   6.0340   6.0507   6.0862   6.2959   6.3139
     6.4746   6.5514   6.7359   6.7696   6.8145   7.0594   7.1299   7.3471
     7.5365   8.0141   8.1416   8.2249   8.3150   8.5243   8.5744   8.8339
     9.0213   9.2738   9.4044   9.4712

          k =-0.0253 0.0560 0.0000 ( 34699 PWs)   bands (ev):

   -57.8145 -57.7971 -57.5084 -57.4625 -57.3807 -57.3618 -57.2698 -57.2522
   -57.1723 -57.1545 -57.1090 -57.0911 -56.8805 -56.8160 -56.2766 -56.2590
   -34.1647 -34.0971 -34.0828 -34.0010 -33.9698 -33.9638 -33.9542 -33.8051
   -33.7748 -33.7648 -33.7514 -33.7150 -33.7055 -33.6927 -33.6763 -33.6731
   -33.5933 -33.5775 -33.5754 -33.5438 -33.5361 -33.5263 -33.4802 -33.4698
   -33.4525 -33.4389 -33.4074 -33.3815 -33.3768 -33.3610 -33.3605 -33.3546
   -33.3403 -33.3263 -33.3041 -33.3017 -33.2669 -33.1450 -33.1341 -33.0861
   -33.0573 -33.0344 -32.6307 -32.6169 -32.6076 -32.4854 -32.4396 -32.4097
   -24.2460 -21.0054 -17.9209 -17.7204 -17.5268 -17.4417 -17.4196 -17.3987
   -17.3103 -17.2951 -17.1843 -17.1221 -17.0845 -17.0319 -17.0071 -16.9908
   -16.8998 -16.8909 -16.8528 -16.8054 -16.7715 -16.7342 -16.6828 -16.5897
   -16.5755 -16.4671 -16.4326 -16.3244 -16.3194 -16.2825 -16.2466 -16.1828
   -14.8940 -14.8562  -9.7914  -7.4918  -7.4717  -5.9943  -5.2225  -5.0765
    -4.9619  -4.9337  -4.9036  -4.7309  -4.6640  -4.6478  -4.5312  -4.5256
    -4.5023  -4.4942  -4.3951  -4.3549  -4.3479  -4.3176  -4.2845  -4.2696
    -4.2254  -4.2112  -4.1896  -4.1559  -4.0871  -4.0749  -4.0623  -4.0081
    -3.9722  -3.9154  -3.8465  -3.8074  -3.7244  -3.6301  -3.5449  -3.4689
    -3.4311  -3.4115  -3.3738  -3.2064  -3.1729  -3.0391  -2.9914  -2.9718
    -2.9452  -2.8752  -2.7992  -2.7650  -2.7115  -2.6713  -2.6316  -2.5811
    -2.5579  -2.5155  -2.4707  -2.4554  -2.4120  -2.3991  -2.3176  -2.2736
    -2.2576  -2.2288  -2.1717  -2.1366  -2.0899  -2.0791  -2.0109  -1.9979
    -1.9501  -1.9272  -1.8749  -1.8369  -1.8187  -1.7780  -1.7218  -1.6941
    -1.6615  -1.5866  -1.5656  -1.4900  -1.4685  -1.4226  -1.3815  -1.3423
    -1.2582  -1.2296  -1.1579  -1.0945  -1.0683  -0.9690  -0.9435  -0.8743
    -0.8206  -0.7343  -0.6012  -0.4049  -0.0419  -0.0011   0.0241   0.0471
     1.7373   1.9129   1.9284   2.0512   2.0568   2.0826   2.1686   2.1778
     2.2520   2.2694   2.2925   2.3074   2.3511   2.3956   2.4254   2.5072
     2.5596   2.5787   2.6442   2.6555   2.6726   2.6876   2.7521   2.7852
     2.8061   2.8217   2.8726   2.8805   2.9901   3.0565   3.1232   3.1426
     3.2005   3.2125   3.2444   3.2753   3.3246   3.3647   3.4173   3.4391
     3.5138   3.5363   3.6362   3.6650   3.6994   3.7335   3.7550   3.8210
     3.9391   3.9765   4.0125   4.1370   4.2071   4.3685   4.7766   4.8470
     4.9902   5.0252   5.0993   5.1168   5.1403   5.2234   5.3269   5.4284
     5.4491   5.5069   5.5962   5.6272   5.7180   5.7310   5.7939   5.8241
     5.8795   5.9066   5.9512   6.0137   6.0510   6.2217   6.2482   6.3601
     6.4090   6.4465   6.6507   6.6554   6.7825   6.9068   7.0477   7.2880
     7.3791   7.7162   7.8356   8.0906   8.3674   8.5590   8.6324   8.9035
     9.0256   9.0648   9.2936   9.3879

          k =-0.0506 0.0280 0.0000 ( 34685 PWs)   bands (ev):

   -57.8209 -57.7907 -57.5117 -57.4591 -57.3869 -57.3555 -57.2762 -57.2457
   -57.1788 -57.1481 -57.1154 -57.0847 -56.8831 -56.8133 -56.2831 -56.2525
   -34.2352 -34.1024 -34.0777 -34.0346 -34.0165 -33.9368 -33.8968 -33.8418
   -33.8211 -33.7520 -33.7356 -33.7272 -33.7162 -33.6906 -33.6835 -33.6730
   -33.6481 -33.6070 -33.5935 -33.5354 -33.5326 -33.4857 -33.4576 -33.4452
   -33.4341 -33.4241 -33.4100 -33.3890 -33.3737 -33.3608 -33.3533 -33.3427
   -33.3134 -33.3128 -33.3052 -33.2761 -33.2744 -33.1480 -33.1378 -33.0847
   -33.0438 -32.9669 -32.6782 -32.6376 -32.6109 -32.5020 -32.4226 -32.3356
   -24.2460 -21.0054 -18.0294 -17.7784 -17.5674 -17.4775 -17.4732 -17.3994
   -17.3407 -17.2565 -17.2414 -17.1108 -17.0904 -17.0628 -17.0597 -17.0007
   -16.9818 -16.9677 -16.8701 -16.7610 -16.7182 -16.6706 -16.5863 -16.5695
   -16.5331 -16.4906 -16.4611 -16.3067 -16.2736 -16.2641 -16.1331 -16.1221
   -14.8741 -14.8057  -9.7902  -7.4893  -7.4716  -5.9952  -5.4373  -5.0174
    -4.9440  -4.9322  -4.8625  -4.8390  -4.8192  -4.7782  -4.6415  -4.5795
    -4.5625  -4.5085  -4.4511  -4.3593  -4.3119  -4.2265  -4.1749  -4.1553
    -4.1360  -4.1265  -4.0544  -4.0108  -3.9778  -3.9506  -3.9093  -3.8843
    -3.8632  -3.8290  -3.7824  -3.7233  -3.7056  -3.5879  -3.4523  -3.4184
    -3.3922  -3.3325  -3.3036  -3.2563  -3.1867  -3.1034  -3.0593  -3.0047
    -2.9396  -2.9203  -2.8702  -2.8641  -2.8057  -2.7554  -2.7374  -2.6858
    -2.6445  -2.6193  -2.5877  -2.5397  -2.5008  -2.4768  -2.4341  -2.4069
    -2.3430  -2.3126  -2.2320  -2.2044  -2.1367  -2.1059  -2.0928  -2.0484
    -1.9982  -1.9352  -1.9062  -1.8756  -1.8480  -1.7791  -1.6935  -1.6380
    -1.6025  -1.5710  -1.4978  -1.4698  -1.4291  -1.4077  -1.3232  -1.2697
    -1.1865  -1.1466  -1.0360  -1.0219  -0.9540  -0.9259  -0.8920  -0.8572
    -0.8178  -0.6536  -0.4551  -0.4010  -0.2050  -0.0223   0.0084   0.0220
     1.5820   1.7881   1.9209   1.9383   1.9576   2.0333   2.0671   2.1447
     2.2410   2.2565   2.2979   2.3583   2.4077   2.4499   2.4515   2.5187
     2.5348   2.5730   2.6049   2.6505   2.6916   2.7689   2.8219   2.8284
     2.8714   2.9229   2.9477   3.0101   3.0182   3.0649   3.1402   3.1640
     3.2296   3.2624   3.2961   3.3110   3.3776   3.3996   3.4408   3.4761
     3.4954   3.5292   3.5427   3.5929   3.6368   3.6863   3.7363   3.8229
     3.9278   4.0282   4.1355   4.1460   4.2813   4.3495   4.5250   4.6330
     4.6554   4.6815   4.8477   4.8977   4.9938   5.3107   5.3614   5.4712
     5.5138   5.5748   5.6540   5.7084   5.7343   5.7510   5.8820   5.9292
     5.9801   6.0213   6.2543   6.2708   6.3053   6.3707   6.4313   6.5138
     6.5412   6.6191   6.6854   6.7317   6.8248   6.9582   7.0269   7.3414
     7.4326   7.6897   7.8121   8.0800   8.3120   8.3992   8.5270   8.9208
     9.0856   9.1650   9.3734   9.4613

          k =-0.0506 0.0560 0.0000 ( 34596 PWs)   bands (ev):

   -57.8145 -57.7971 -57.5084 -57.4625 -57.3806 -57.3618 -57.2698 -57.2521
   -57.1724 -57.1545 -57.1090 -57.0911 -56.8805 -56.8160 -56.2766 -56.2590
   -34.1653 -34.0971 -34.0828 -33.9998 -33.9700 -33.9639 -33.9538 -33.8051
   -33.7754 -33.7652 -33.7514 -33.7138 -33.7055 -33.6932 -33.6786 -33.6753
   -33.5905 -33.5786 -33.5755 -33.5371 -33.5356 -33.5160 -33.4829 -33.4635
   -33.4523 -33.4388 -33.4076 -33.3816 -33.3804 -33.3684 -33.3605 -33.3567
   -33.3405 -33.3276 -33.3040 -33.3015 -33.2667 -33.1462 -33.1342 -33.0867
   -33.0573 -33.0343 -32.6319 -32.6164 -32.6074 -32.4854 -32.4395 -32.4097
   -24.2460 -21.0052 -17.8726 -17.6273 -17.4526 -17.4308 -17.4127 -17.3402
   -17.3009 -17.2687 -17.1965 -17.1636 -17.0925 -17.0729 -17.0072 -16.9857
   -16.9833 -16.9145 -16.9045 -16.8398 -16.8003 -16.7737 -16.7069 -16.6612
   -16.5586 -16.4567 -16.4136 -16.3149 -16.3136 -16.2852 -16.2483 -16.1823
   -14.8928 -14.8565  -9.7899  -7.4920  -7.4713  -5.9936  -5.2145  -4.7828
    -4.7319  -4.7222  -4.6844  -4.6481  -4.6377  -4.6009  -4.4959  -4.4778
    -4.4528  -4.4369  -4.3454  -4.2925  -4.2762  -4.2707  -4.2286  -4.2081
    -4.1841  -4.1714  -4.1575  -4.1307  -4.0775  -4.0405  -4.0294  -3.9996
    -3.9445  -3.8846  -3.8192  -3.7832  -3.6801  -3.6519  -3.5083  -3.4817
    -3.4643  -3.3972  -3.3790  -3.2028  -3.1145  -3.0762  -3.0275  -2.9847
    -2.9650  -2.9111  -2.8920  -2.8550  -2.8064  -2.7647  -2.7124  -2.7071
    -2.6353  -2.6187  -2.5905  -2.5154  -2.4844  -2.4660  -2.4494  -2.4277
    -2.3994  -2.3565  -2.2868  -2.2744  -2.2496  -2.2241  -2.1765  -2.1643
    -2.0921  -2.0526  -2.0218  -1.9793  -1.9349  -1.8539  -1.7863  -1.7695
    -1.7018  -1.6017  -1.5281  -1.4829  -1.4490  -1.3707  -1.3343  -1.2264
    -1.1737  -1.1355  -1.0915  -1.0301  -0.9864  -0.9222  -0.9096  -0.8318
    -0.7983  -0.7839  -0.6549  -0.4646  -0.0537  -0.0165  -0.0031   0.0529
     1.7403   1.9367   1.9573   2.0187   2.0751   2.1146   2.1244   2.1777
     2.2245   2.2718   2.3872   2.4239   2.4321   2.4577   2.4772   2.5030
     2.5964   2.6122   2.6451   2.6682   2.6979   2.7308   2.7944   2.8235
     2.8951   2.9073   2.9471   2.9785   3.0267   3.0663   3.1921   3.2198
     3.2382   3.2677   3.3159   3.3296   3.3720   3.3900   3.4084   3.4689
     3.5474   3.5829   3.6108   3.6920   3.7413   3.7719   3.7820   3.7987
     3.8407   3.9727   4.0249   4.1514   4.2114   4.4543   4.6489   4.6791
     4.7513   4.7539   4.8986   5.0034   5.0752   5.1427   5.2123   5.2378
     5.3090   5.4669   5.5687   5.6364   5.6991   5.7418   5.8330   5.9732
     6.0154   6.1177   6.1674   6.2118   6.2575   6.3059   6.4684   6.4869
     6.5518   6.5932   6.6506   6.6833   6.8414   6.8673   6.9767   7.3062
     7.3298   7.7307   7.7636   8.0196   8.0992   8.1767   8.5837   8.6710
     8.8358   8.9172   9.1441   9.3656

     the Fermi energy is     0.8665 ev

!    total energy              =   -3044.95654892 Ry
     Harris-Foulkes estimate   =   -3044.95654565 Ry
     estimated scf accuracy    <       0.00000020 Ry

     The total energy is the sum of the following terms:

     one-electron contribution =  -40855.54174410 Ry
     hartree contribution      =   20500.09498051 Ry
     xc contribution           =    -557.16359388 Ry
     ewald contribution        =   17867.65401412 Ry
     smearing contrib. (-TS)   =      -0.00020557 Ry

     total magnetization       =     0.00 Bohr mag/cell
     absolute magnetization    =     0.00 Bohr mag/cell

     convergence has been achieved in  10 iterations

     Forces acting on atoms (Ry/au):


     negative rho (up, down):  1.158E-02 1.158E-02
     atom    1 type  1   force =    -0.00006439    0.00032033   -0.13601637
     atom    2 type  2   force =     0.00007438   -0.00005620    0.07522968
     atom    3 type  1   force =     0.00128104    0.00109281   -0.05985106
     atom    4 type  2   force =     0.00659917   -0.00004571    0.00969395
     atom    5 type  1   force =    -0.00130266   -0.00000004    0.00000992
     atom    6 type  2   force =    -0.00178435   -0.00342315   -0.00924003
     atom    7 type  1   force =     0.01095199    0.00772175   -0.01610468
     atom    8 type  2   force =     0.00055688   -0.00024148    0.00070347
     atom    9 type  1   force =     0.00012731    0.00034962   -0.13605250
     atom   10 type  2   force =     0.00019126    0.00000327    0.07511199
     atom   11 type  1   force =     0.00124934   -0.00082690   -0.05995051
     atom   12 type  2   force =     0.00603969   -0.00007008    0.00856266
     atom   13 type  1   force =     0.00016103   -0.00023636   -0.00035407
     atom   14 type  2   force =    -0.00207089    0.00308836   -0.00877035
     atom   15 type  1   force =     0.01127075   -0.00806924   -0.01722037
     atom   16 type  2   force =     0.00707184    0.00047781    0.01064062
     atom   17 type  2   force =    -0.00002284   -0.00002784    0.08001015
     atom   18 type  1   force =    -0.00007758    0.00021508    0.11910191
     atom   19 type  2   force =     0.00038575    0.00018345   -0.06808698
     atom   20 type  2   force =    -0.06268502    0.00009216   -0.03209137
     atom   21 type  2   force =     0.06273216    0.00019508   -0.03256877
     atom   22 type  1   force =    -0.00046879   -0.00011792    0.06428941
     atom   23 type  2   force =     0.00016064    0.00061385   -0.00264831
     atom   24 type  2   force =     0.00054219    0.00006192   -0.02236569
     atom   25 type  2   force =    -0.00648311   -0.00027942    0.00824855
     atom   26 type  1   force =    -0.00015349   -0.00004867    0.00253656
     atom   27 type  2   force =     0.00250746   -0.00142278   -0.00233025
     atom   28 type  2   force =    -0.00002063   -0.00008548   -0.00145753
     atom   29 type  2   force =     0.00008275    0.00007284   -0.00051971
     atom   30 type  1   force =     0.00575109    0.00059948   -0.00066224
     atom   31 type  2   force =    -0.00196894    0.00160335    0.00098973
     atom   32 type  2   force =     0.00161786    0.00000891    0.00198477
     atom   33 type  2   force =     0.00000541    0.00012943    0.08008353
     atom   34 type  1   force =    -0.00004783    0.00023529    0.11908601
     atom   35 type  2   force =     0.00034221    0.00034069   -0.06805421
     atom   36 type  2   force =    -0.06269196    0.00011115   -0.03229435
     atom   37 type  2   force =     0.06283065    0.00023456   -0.03204686
     atom   38 type  1   force =    -0.00069880    0.00003811    0.06412327
     atom   39 type  2   force =     0.00019371   -0.00078672   -0.00264174
     atom   40 type  2   force =     0.00059191   -0.00222889   -0.02260128
     atom   41 type  2   force =    -0.00618460   -0.00034410    0.00762899
     atom   42 type  1   force =    -0.00007438   -0.00004941    0.00253897
     atom   43 type  2   force =     0.00255839    0.00141351   -0.00246584
     atom   44 type  2   force =     0.00034864   -0.00005619   -0.00069569
     atom   45 type  2   force =    -0.00021249   -0.00011415   -0.00088322
     atom   46 type  1   force =    -0.01906646    0.00032413   -0.00503392
     atom   47 type  2   force =    -0.00223127   -0.00129084    0.00125896
     atom   48 type  2   force =    -0.00083501   -0.00029519   -0.02804235
     atom   49 type  2   force =    -0.04871036    0.00648064    0.17844561
     atom   50 type  3   force =    -0.03192658    0.00493361   -0.03222570
     atom   51 type  3   force =     0.06355695   -0.01082441   -0.07700275

     Total force =     0.429611     Total SCF correction =     0.001144
 !ASE

     Writing output data file calc.save
 
     init_run     :     55.10s CPU     68.67s WALL (       1 calls)
     electrons    :   2025.75s CPU   2443.98s WALL (       1 calls)
     forces       :     41.06s CPU     42.29s WALL (       1 calls)

     Called by init_run:
     wfcinit      :     46.73s CPU     59.65s WALL (       1 calls)
     potinit      :      1.55s CPU      1.83s WALL (       1 calls)

     Called by electrons:
     c_bands      :   1745.37s CPU   2095.35s WALL (      10 calls)
     sum_band     :    235.31s CPU    297.50s WALL (      10 calls)
     v_of_rho     :     11.11s CPU     14.05s WALL (      11 calls)
     newd         :     38.10s CPU     41.36s WALL (      11 calls)
     mix_rho      :      0.35s CPU      0.57s WALL (      10 calls)
     vdW_energy   :      1.97s CPU      2.45s WALL (      12 calls)
     vdW_ffts     :      2.99s CPU      4.13s WALL (      24 calls)
     vdW_v        :      1.19s CPU      1.40s WALL (      12 calls)

     Called by c_bands:
     init_us_2    :      5.87s CPU      6.44s WALL (     880 calls)
     cegterg      :   1709.68s CPU   2057.69s WALL (     400 calls)

     Called by *egterg:
     h_psi        :    744.74s CPU   1021.06s WALL (    1844 calls)
     s_psi        :     92.03s CPU     95.99s WALL (    1844 calls)
     g_psi        :      4.91s CPU      4.90s WALL (    1404 calls)
     cdiaghg      :    534.54s CPU    543.94s WALL (    1804 calls)

     Called by h_psi:
     add_vuspsi   :     92.63s CPU     96.47s WALL (    1844 calls)

     General routines
     calbec       :    142.05s CPU    145.59s WALL (    2284 calls)
     fft          :      6.53s CPU      8.58s WALL (     948 calls)
     ffts         :      0.04s CPU      0.07s WALL (      42 calls)
     fftw         :    481.75s CPU    806.10s WALL (  723032 calls)
     interpolate  :      0.31s CPU      0.51s WALL (      42 calls)
     davcio       :      0.15s CPU      3.77s WALL (      40 calls)
 
     Parallel routines
     fft_scatter  :    252.32s CPU    445.18s WALL (  724022 calls)
 
     PWSCF        : 35m22.91s CPU    42m40.49s WALL

 
   This run was terminated on:   8:12:29  10Mar2018            

=------------------------------------------------------------------------------=
   JOB DONE.
=------------------------------------------------------------------------------=
