  python dir          : /home/vossj/suncat/lib/python2.7/site-packages/espresso
  espresso dir        : /home/vossj/suncat/esdld/espresso-dynpy-beef/bin
  pseudo dir          : /home/alatimer/bin/psp/esp_psp_w_gbrvRu/
  ase-espresso py git : ffa2778-git



     Program PWSCF v.5.1rc2 (svn rev. ) starts on 26Feb2018 at 18:46:48 

     This program is part of the open-source Quantum ESPRESSO suite
     for quantum simulation of materials; please cite
         "P. Giannozzi et al., J. Phys.:Condens. Matter 21 395502 (2009);
          URL http://www.quantum-espresso.org", 
     in publications or presentations arising from this work. More details at
     http://www.quantum-espresso.org/quote

     Parallel version (MPI), running on    16 processors
     R & G space division:  proc/nbgrp/npool/nimage =      16
     Reading input from pw.inp
     Message from routine read_cards :
     DEPRECATED: no units specified in CELL_PARAMETERS card

     Current dimensions of program PWSCF are:
     Max number of different atomic species (ntypx) = 10
     Max number of k-points (npk) =  40000
     Max angular momentum in pseudopotentials (lmaxx) =  3

     **************************************************************************
     Initializing libbeef V0.1.1 with the BEEF-vdW functional.
     Citation: Wellendorff et al., PRB 85, 235149 (2012).
     **************************************************************************


     IMPORTANT: XC functional enforced from input :
     Exchange-correlation      = BEEF ( 1  4 27 13 2)
     Any further DFT definition will be discarded
     Please, verify this is what you really want


     Subspace diagonalization in iterative solution of the eigenvalue problem:
     a serial algorithm will be used

 
     Parallelization info
     --------------------
     sticks:   dense  smooth     PW     G-vecs:    dense   smooth      PW
     Min         281     112     31                68535    17318    2565
     Max         282     113     32                68545    17369    2582
     Sum        4501    1795    503              1096637   277353   41113
 
     Generating pointlists ...
     new r_m :   0.4125 (alat units)  0.7795 (a.u.) for type    1
     new r_m :   0.4125 (alat units)  0.7795 (a.u.) for type    2
     new r_m :   0.4125 (alat units)  0.7795 (a.u.) for type    3
     new r_m :   0.4125 (alat units)  0.7795 (a.u.) for type    4


     bravais-lattice index     =            0
     lattice parameter (alat)  =       1.8897  a.u.
     unit-cell volume          =    7990.9933 (a.u.)^3
     number of atoms/cell      =           54
     number of atomic types    =            4
     number of electrons       =       398.00
     number of Kohn-Sham states=          299
     kinetic-energy cutoff     =      40.4243  Ry
     charge density cutoff     =     404.2426  Ry
     convergence threshold     =      7.3E-07
     mixing beta               =       0.1000
     number of iterations used =           10  plain     mixing
     Exchange-correlation      = BEEF ( 1  4 27 13 2)
     nstep                     =           50


     celldm(1)=   1.889726  celldm(2)=   0.000000  celldm(3)=   0.000000
     celldm(4)=   0.000000  celldm(5)=   0.000000  celldm(6)=   0.000000

     crystal axes: (cart. coord. in units of alat)
               a(1) = (   6.590708   0.000000   0.000000 )  
               a(2) = (   0.000000   5.950229   0.000000 )  
               a(3) = (   0.000000   0.000000  30.195235 )  

     reciprocal axes: (cart. coord. in units 2 pi/alat)
               b(1) = (  0.151729  0.000000  0.000000 )  
               b(2) = (  0.000000  0.168061  0.000000 )  
               b(3) = (  0.000000  0.000000  0.033118 )  


     PseudoPot. # 1 for Ti read from file:
     /home/alatimer/bin/psp/esp_psp_w_gbrvRu/Ti.UPF
     MD5 check sum: 8e4df49b7f0d34bbd5052bf3f5ea0213
     Pseudo is Ultrasoft, Zval = 12.0
     Generated by new atomic code, or converted to UPF format
     Using radial grid of  851 points,  6 beta functions with: 
                l(1) =   0
                l(2) =   0
                l(3) =   1
                l(4) =   1
                l(5) =   2
                l(6) =   2
     Q(r) pseudized with  8 coefficients,  rinner =    1.000   1.000   1.000
                                                       1.000   1.000

     PseudoPot. # 2 for  O read from file:
     /home/alatimer/bin/psp/esp_psp_w_gbrvRu/O.UPF
     MD5 check sum: e057bbcf3229fb5d8c36c0c92f9568b4
     Pseudo is Ultrasoft + core correction, Zval =  6.0
     Generated using "atomic" code by A. Dal Corso  v.5.0.2 svn rev. 9415
     Using radial grid of 1095 points,  4 beta functions with: 
                l(1) =   0
                l(2) =   0
                l(3) =   1
                l(4) =   1
     Q(r) pseudized with 0 coefficients 


     PseudoPot. # 3 for  C read from file:
     /home/alatimer/bin/psp/esp_psp_w_gbrvRu/C.UPF
     MD5 check sum: ab446d787031eba755f1d5ee46644bb0
     Pseudo is Ultrasoft + core correction, Zval =  4.0
     Generated using "atomic" code by A. Dal Corso  v.5.0.2 svn rev. 9415
     Using radial grid of 1073 points,  4 beta functions with: 
                l(1) =   0
                l(2) =   0
                l(3) =   1
                l(4) =   1
     Q(r) pseudized with 0 coefficients 


     PseudoPot. # 4 for  H read from file:
     /home/alatimer/bin/psp/esp_psp_w_gbrvRu/H.UPF
     MD5 check sum: bd57da0722753ddfd9833a65b40bb853
     Pseudo is Ultrasoft, Zval =  1.0
     Generated using "atomic" code by A. Dal Corso  v.5.0.2 svn rev. 9415
     Using radial grid of  929 points,  2 beta functions with: 
                l(1) =   0
                l(2) =   0
     Q(r) pseudized with 0 coefficients 


     vdW kernel table read from file vdW_kernel_table
     MD5 check sum: 095c7af220d748ca6e76c0b4c6cfb241

     atomic species   valence    mass     pseudopotential
        Ti1           12.00    47.88000     Ti( 1.00)
        O1             6.00    15.99940      O( 1.00)
        C1             4.00    12.01100      C( 1.00)
        H1             1.00     1.00794      H( 1.00)

     Starting magnetic structure 
     atomic species   magnetization
        Ti1          0.250
        O1           0.500
        C1           0.750
        H1           0.000

     No symmetry found



   Cartesian axes

     site n.     atom                  positions (alat units)
         1           Ti1 tau(   1) = (   1.6476770   0.7437786   2.6545865  )
         2           O1  tau(   2) = (   1.6476770   2.2313359   3.9361215  )
         3           Ti1 tau(   3) = (   1.6476770   2.2313359   5.9499405  )
         4           O1  tau(   4) = (   0.3661420   0.7437786   5.9499405  )
         5           Ti1 tau(   5) = (   1.6407309   0.9134410   9.3139491  )
         6           O1  tau(   6) = (   1.6648823   2.2608486  10.4895904  )
         7           Ti1 tau(   7) = (   1.7578240   2.2899216  13.0472362  )
         8           O1  tau(   8) = (   0.4801583   0.7600008  12.7739736  )
         9           Ti1 tau(   9) = (   1.6476770   3.7188931   2.6545865  )
        10           O1  tau(  10) = (   1.6476770   5.2064503   3.9361215  )
        11           Ti1 tau(  11) = (   1.6476770   5.2064503   5.9499405  )
        12           O1  tau(  12) = (   0.3661420   3.7188931   5.9499405  )
        13           Ti1 tau(  13) = (   1.6336050   3.7786827   9.1566831  )
        14           O1  tau(  14) = (   1.6678212   5.2513959  10.5409436  )
        15           Ti1 tau(  15) = (   1.7144009   5.2558216  12.3462911  )
        16           O1  tau(  16) = (   0.4635505   3.7986228  12.7318280  )
        17           O1  tau(  17) = (   1.6476770   2.2313359   1.3730516  )
        18           Ti1 tau(  18) = (   4.9430310   2.2313359   2.6545865  )
        19           O1  tau(  19) = (   4.9430310   2.2313359   4.6684056  )
        20           O1  tau(  20) = (   6.2245660   0.7437786   2.6545865  )
        21           O1  tau(  21) = (   3.6614961   0.7437786   2.6545865  )
        22           Ti1 tau(  22) = (   4.9430310   0.7437786   5.9499405  )
        23           O1  tau(  23) = (   1.6683653   2.2752577   7.9427336  )
        24           O1  tau(  24) = (   4.9430310   2.2313359   7.2314755  )
        25           O1  tau(  25) = (   2.9292120   0.7437786   5.9499405  )
        26           Ti1 tau(  26) = (   4.9404121   2.2664794   9.4552217  )
        27           O1  tau(  27) = (   5.0099888   2.2616732  11.2946145  )
        28           O1  tau(  28) = (   6.2612001   0.7714827   9.2659748  )
        29           O1  tau(  29) = (   3.6791272   0.7744986   9.2965846  )
        30           Ti1 tau(  30) = (   5.0117873   0.7976728  12.8161605  )
        31           O1  tau(  31) = (   4.9963122   2.2836652  13.8750618  )
        32           O1  tau(  32) = (   2.9819382   0.7448324  12.7109220  )
        33           O1  tau(  33) = (   1.6476770   5.2064503   1.3730516  )
        34           Ti1 tau(  34) = (   4.9430310   5.2064503   2.6545865  )
        35           O1  tau(  35) = (   4.9430310   5.2064503   4.6684056  )
        36           O1  tau(  36) = (   6.2245660   3.7188931   2.6545865  )
        37           O1  tau(  37) = (   3.6614961   3.7188931   2.6545865  )
        38           Ti1 tau(  38) = (   4.9430310   3.7188931   5.9499405  )
        39           O1  tau(  39) = (   1.6664207   5.2035600   7.9365221  )
        40           O1  tau(  40) = (   4.9430310   5.2064503   7.2314755  )
        41           O1  tau(  41) = (   2.9292120   3.7188931   5.9499405  )
        42           Ti1 tau(  42) = (   4.9524353   5.2460635   9.4426343  )
        43           O1  tau(  43) = (   5.0107556   5.2394944  11.2927493  )
        44           O1  tau(  44) = (   6.2663940   3.7551737   9.2646230  )
        45           O1  tau(  45) = (   3.6780957   3.7542261   9.2971476  )
        46           Ti1 tau(  46) = (   5.0587989   3.7766986  12.8010349  )
        47           O1  tau(  47) = (   5.0196089   5.2502198  13.8813978  )
        48           O1  tau(  48) = (   2.9624133   3.7943242  12.7299881  )
        49           O1  tau(  49) = (   1.7427453   2.2533568  14.8370015  )
        50           C1  tau(  50) = (   2.7196098   4.2826273  16.2318421  )
        51           H1  tau(  51) = (   3.3037454   4.9255546  15.5827400  )
        52           H1  tau(  52) = (   3.3286606   3.7870117  16.9822022  )
        53           H1  tau(  53) = (   2.3425587   3.4026405  15.5729816  )
        54           H1  tau(  54) = (   1.8391288   4.7650601  16.6448379  )

     number of k points=    40  Fermi-Dirac smearing, width (Ry)=  0.0073
                       cart. coord. in units 2pi/alat
        k(    1) = (   0.0000000   0.0000000   0.0000000), wk =   0.0277778
        k(    2) = (   0.0000000   0.0280101   0.0000000), wk =   0.0555556
        k(    3) = (   0.0000000   0.0560203   0.0000000), wk =   0.0555556
        k(    4) = (   0.0000000  -0.0840304   0.0000000), wk =   0.0277778
        k(    5) = (   0.0252881   0.0000000   0.0000000), wk =   0.0555556
        k(    6) = (   0.0252881   0.0280101   0.0000000), wk =   0.0555556
        k(    7) = (   0.0252881   0.0560203   0.0000000), wk =   0.0555556
        k(    8) = (   0.0252881  -0.0840304   0.0000000), wk =   0.0555556
        k(    9) = (   0.0505763   0.0000000   0.0000000), wk =   0.0555556
        k(   10) = (   0.0505763   0.0280101   0.0000000), wk =   0.0555556
        k(   11) = (   0.0505763   0.0560203   0.0000000), wk =   0.0555556
        k(   12) = (   0.0505763  -0.0840304   0.0000000), wk =   0.0555556
        k(   13) = (  -0.0758644   0.0000000   0.0000000), wk =   0.0277778
        k(   14) = (  -0.0758644   0.0280101   0.0000000), wk =   0.0555556
        k(   15) = (  -0.0758644   0.0560203   0.0000000), wk =   0.0555556
        k(   16) = (  -0.0758644  -0.0840304   0.0000000), wk =   0.0277778
        k(   17) = (  -0.0252881   0.0280101   0.0000000), wk =   0.0555556
        k(   18) = (  -0.0252881   0.0560203   0.0000000), wk =   0.0555556
        k(   19) = (  -0.0505763   0.0280101   0.0000000), wk =   0.0555556
        k(   20) = (  -0.0505763   0.0560203   0.0000000), wk =   0.0555556
        k(   21) = (   0.0000000   0.0000000   0.0000000), wk =   0.0277778
        k(   22) = (   0.0000000   0.0280101   0.0000000), wk =   0.0555556
        k(   23) = (   0.0000000   0.0560203   0.0000000), wk =   0.0555556
        k(   24) = (   0.0000000  -0.0840304   0.0000000), wk =   0.0277778
        k(   25) = (   0.0252881   0.0000000   0.0000000), wk =   0.0555556
        k(   26) = (   0.0252881   0.0280101   0.0000000), wk =   0.0555556
        k(   27) = (   0.0252881   0.0560203   0.0000000), wk =   0.0555556
        k(   28) = (   0.0252881  -0.0840304   0.0000000), wk =   0.0555556
        k(   29) = (   0.0505763   0.0000000   0.0000000), wk =   0.0555556
        k(   30) = (   0.0505763   0.0280101   0.0000000), wk =   0.0555556
        k(   31) = (   0.0505763   0.0560203   0.0000000), wk =   0.0555556
        k(   32) = (   0.0505763  -0.0840304   0.0000000), wk =   0.0555556
        k(   33) = (  -0.0758644   0.0000000   0.0000000), wk =   0.0277778
        k(   34) = (  -0.0758644   0.0280101   0.0000000), wk =   0.0555556
        k(   35) = (  -0.0758644   0.0560203   0.0000000), wk =   0.0555556
        k(   36) = (  -0.0758644  -0.0840304   0.0000000), wk =   0.0277778
        k(   37) = (  -0.0252881   0.0280101   0.0000000), wk =   0.0555556
        k(   38) = (  -0.0252881   0.0560203   0.0000000), wk =   0.0555556
        k(   39) = (  -0.0505763   0.0280101   0.0000000), wk =   0.0555556
        k(   40) = (  -0.0505763   0.0560203   0.0000000), wk =   0.0555556

     Dense  grid:  1096637 G-vectors     FFT dimensions: (  80,  72, 375)

     Smooth grid:   277353 G-vectors     FFT dimensions: (  54,  45, 240)

     Largest allocated arrays     est. size (Mb)     dimensions
        Kohn-Sham Wavefunctions         9.95 Mb     (    2180,  299)
        NL pseudopotentials            18.89 Mb     (    2180,  568)
        Each V/rho on FFT grid          4.22 Mb     (  138240,   2)
        Each G-vector array             0.52 Mb     (   68538)
        G-vector shells                 0.25 Mb     (   33046)
     Largest temporary arrays     est. size (Mb)     dimensions
        Auxiliary wavefunctions        39.78 Mb     (    2180, 1196)
        Each subspace H/S matrix       21.83 Mb     (    1196, 1196)
        Each <psi_i|beta_j> matrix      2.59 Mb     (     568,  299)
        Arrays for rho mixing          21.09 Mb     (  138240,   10)

     Check: negative/imaginary core charge=   -0.000049    0.000000

     The initial density is read from file :
     ./calc.save/charge-density.dat


     negative rho (up, down):  1.189E-02 1.196E-02


     ************************************************************************
     *
     * You are using vdW-DF for exchange-correlation in this calculation.
     * Please cite the following three references that made this development
     * possible:
     *
     *   M. Dion, H. Rydberg, E. Schroder, D. C. Langreth, and
     *   B. I. Lundqvist, Phys. Rev. Lett. 92, 246401 (2004).
     *
     *   T. Thonhauser, V. R. Cooper, S. Li, A. Puzder, P. Hyldgaard, and
     *   D. C. Langreth, Phys. Rev. B 76, 125112 (2007).
     *
     *   G. Roman-Perez and J. M. Soler, Phys. Rev. Lett. 103, 096102 (2009).
     *
     *
     * If you are using vdW-DF2, please also cite:
     *
     *   K. Lee, E. D. Murray, L. Kong, B. I. Lundqvist, and
     *   D. C. Langreth, Phys. Rev. B 82, 081101(R) (2010).
     *
     *
     * If you are calculating the stress with vdW-DF, please also cite:
     *
     *   R. Sabatini, E. Kucukbenli, B. Kolb, T. Thonhauser, and
     *   S. de Gironcoli, J. Phys.: Condens. Matter 24, 424209 (2012).
     *
     ************************************************************************

     Carrying out vdW-DF run using the following parameters:

     Nqs =      20    Nr_points =    1024   r_max =   100.000
     q_mesh =
               0.00001000     0.04494208     0.09755937     0.15916263
               0.23128650     0.31572767     0.41458969     0.53033537
               0.66584808     0.82450364     1.01025438     1.22772762
               1.48234092     1.78043706     2.12944203     2.53805004
               3.01644009     3.57652955     4.23227104     5.00000000

     Gradients computed in reciprocal space

     ************************************************************************


     Starting wfc are  300 randomized atomic wfcs

     total cpu time spent up to now is       80.4 secs

     Self-consistent Calculation

     iteration #  1     ecut=    40.42 Ry     beta=0.10
     Davidson diagonalization with overlap
     ethr =  1.00E-05,  avg # of iterations = 14.9

     Threshold (ethr) on eigenvalues was too large:
     Diagonalizing with lowered threshold

     Davidson diagonalization with overlap
     ethr =  5.20E-07,  avg # of iterations =  1.0

     negative rho (up, down):  1.189E-02 1.196E-02
 
     Magnetic moment per site:
     atom:    1    charge:    3.1244    magn:   -0.0003    constr:    0.0000
     atom:    2    charge:    2.0897    magn:    0.0003    constr:    0.0000
     atom:    3    charge:    3.1198    magn:   -0.0000    constr:    0.0000
     atom:    4    charge:    2.0867    magn:   -0.0001    constr:    0.0000
     atom:    5    charge:    3.1161    magn:   -0.0002    constr:    0.0000
     atom:    6    charge:    2.0795    magn:    0.0021    constr:    0.0000
     atom:    7    charge:    3.1168    magn:   -0.0053    constr:    0.0000
     atom:    8    charge:    2.0792    magn:    0.0250    constr:    0.0000
     atom:    9    charge:    3.1244    magn:   -0.0003    constr:    0.0000
     atom:   10    charge:    2.0898    magn:    0.0003    constr:    0.0000
     atom:   11    charge:    3.1198    magn:   -0.0000    constr:    0.0000
     atom:   12    charge:    2.0871    magn:   -0.0000    constr:    0.0000
     atom:   13    charge:    3.1150    magn:   -0.0002    constr:    0.0000
     atom:   14    charge:    2.0939    magn:    0.0023    constr:    0.0000
     atom:   15    charge:    3.1184    magn:   -0.0008    constr:    0.0000
     atom:   16    charge:    2.0827    magn:    0.0047    constr:    0.0000
     atom:   17    charge:    2.0624    magn:    0.0018    constr:    0.0000
     atom:   18    charge:    3.1239    magn:   -0.0001    constr:    0.0000
     atom:   19    charge:    2.0875    magn:    0.0001    constr:    0.0000
     atom:   20    charge:    2.0847    magn:    0.0002    constr:    0.0000
     atom:   21    charge:    2.0847    magn:    0.0002    constr:    0.0000
     atom:   22    charge:    3.1199    magn:    0.0000    constr:    0.0000
     atom:   23    charge:    2.0908    magn:    0.0002    constr:    0.0000
     atom:   24    charge:    2.0754    magn:   -0.0002    constr:    0.0000
     atom:   25    charge:    2.0867    magn:    0.0000    constr:    0.0000
     atom:   26    charge:    3.1127    magn:   -0.0002    constr:    0.0000
     atom:   27    charge:    2.0803    magn:    0.0025    constr:    0.0000
     atom:   28    charge:    2.0839    magn:    0.0006    constr:    0.0000
     atom:   29    charge:    2.0860    magn:    0.0008    constr:    0.0000
     atom:   30    charge:    3.1171    magn:   -0.0008    constr:    0.0000
     atom:   31    charge:    2.0826    magn:    0.0006    constr:    0.0000
     atom:   32    charge:    2.0829    magn:    0.0065    constr:    0.0000
     atom:   33    charge:    2.0624    magn:    0.0018    constr:    0.0000
     atom:   34    charge:    3.1239    magn:   -0.0001    constr:    0.0000
     atom:   35    charge:    2.0876    magn:    0.0001    constr:    0.0000
     atom:   36    charge:    2.0847    magn:    0.0002    constr:    0.0000
     atom:   37    charge:    2.0847    magn:    0.0002    constr:    0.0000
     atom:   38    charge:    3.1200    magn:    0.0000    constr:    0.0000
     atom:   39    charge:    2.0839    magn:    0.0002    constr:    0.0000
     atom:   40    charge:    2.0756    magn:   -0.0003    constr:    0.0000
     atom:   41    charge:    2.0870    magn:   -0.0000    constr:    0.0000
     atom:   42    charge:    3.1151    magn:   -0.0002    constr:    0.0000
     atom:   43    charge:    2.0803    magn:    0.0030    constr:    0.0000
     atom:   44    charge:    2.0851    magn:    0.0008    constr:    0.0000
     atom:   45    charge:    2.0859    magn:    0.0004    constr:    0.0000
     atom:   46    charge:    3.1148    magn:   -0.0007    constr:    0.0000
     atom:   47    charge:    2.0807    magn:    0.0047    constr:    0.0000
     atom:   48    charge:    2.0837    magn:    0.0137    constr:    0.0000
     atom:   49    charge:    2.0507    magn:    0.2403    constr:    0.0000
     atom:   50    charge:    0.6719    magn:    0.0545    constr:    0.0000
     atom:   51    charge:    0.4220    magn:    0.0009    constr:    0.0000
     atom:   52    charge:    0.4227    magn:    0.0008    constr:    0.0000
     atom:   53    charge:    0.3700    magn:    0.0240    constr:    0.0000
     atom:   54    charge:    0.4230    magn:    0.0005    constr:    0.0000

     total cpu time spent up to now is     1235.0 secs

     total energy              =   -3021.14990725 Ry
     Harris-Foulkes estimate   =   -3021.15013490 Ry
     estimated scf accuracy    <       0.00206998 Ry

     total magnetization       =     1.07 Bohr mag/cell
     absolute magnetization    =     1.24 Bohr mag/cell

     iteration #  2     ecut=    40.42 Ry     beta=0.10
     Davidson diagonalization with overlap
     ethr =  5.20E-07,  avg # of iterations =  1.2

     negative rho (up, down):  1.189E-02 1.196E-02
 
     Magnetic moment per site:
     atom:    1    charge:    3.1244    magn:   -0.0003    constr:    0.0000
     atom:    2    charge:    2.0897    magn:    0.0003    constr:    0.0000
     atom:    3    charge:    3.1198    magn:   -0.0000    constr:    0.0000
     atom:    4    charge:    2.0867    magn:   -0.0001    constr:    0.0000
     atom:    5    charge:    3.1161    magn:   -0.0002    constr:    0.0000
     atom:    6    charge:    2.0795    magn:    0.0021    constr:    0.0000
     atom:    7    charge:    3.1168    magn:   -0.0054    constr:    0.0000
     atom:    8    charge:    2.0791    magn:    0.0251    constr:    0.0000
     atom:    9    charge:    3.1244    magn:   -0.0003    constr:    0.0000
     atom:   10    charge:    2.0898    magn:    0.0003    constr:    0.0000
     atom:   11    charge:    3.1198    magn:   -0.0000    constr:    0.0000
     atom:   12    charge:    2.0870    magn:   -0.0000    constr:    0.0000
     atom:   13    charge:    3.1150    magn:   -0.0002    constr:    0.0000
     atom:   14    charge:    2.0939    magn:    0.0023    constr:    0.0000
     atom:   15    charge:    3.1184    magn:   -0.0008    constr:    0.0000
     atom:   16    charge:    2.0827    magn:    0.0047    constr:    0.0000
     atom:   17    charge:    2.0625    magn:    0.0017    constr:    0.0000
     atom:   18    charge:    3.1240    magn:   -0.0001    constr:    0.0000
     atom:   19    charge:    2.0875    magn:    0.0001    constr:    0.0000
     atom:   20    charge:    2.0847    magn:    0.0002    constr:    0.0000
     atom:   21    charge:    2.0847    magn:    0.0002    constr:    0.0000
     atom:   22    charge:    3.1199    magn:    0.0000    constr:    0.0000
     atom:   23    charge:    2.0908    magn:    0.0002    constr:    0.0000
     atom:   24    charge:    2.0753    magn:   -0.0002    constr:    0.0000
     atom:   25    charge:    2.0867    magn:    0.0000    constr:    0.0000
     atom:   26    charge:    3.1126    magn:   -0.0002    constr:    0.0000
     atom:   27    charge:    2.0802    magn:    0.0025    constr:    0.0000
     atom:   28    charge:    2.0838    magn:    0.0006    constr:    0.0000
     atom:   29    charge:    2.0860    magn:    0.0008    constr:    0.0000
     atom:   30    charge:    3.1171    magn:   -0.0008    constr:    0.0000
     atom:   31    charge:    2.0827    magn:    0.0006    constr:    0.0000
     atom:   32    charge:    2.0829    magn:    0.0065    constr:    0.0000
     atom:   33    charge:    2.0625    magn:    0.0017    constr:    0.0000
     atom:   34    charge:    3.1239    magn:   -0.0001    constr:    0.0000
     atom:   35    charge:    2.0876    magn:    0.0001    constr:    0.0000
     atom:   36    charge:    2.0847    magn:    0.0002    constr:    0.0000
     atom:   37    charge:    2.0847    magn:    0.0002    constr:    0.0000
     atom:   38    charge:    3.1200    magn:    0.0000    constr:    0.0000
     atom:   39    charge:    2.0839    magn:    0.0002    constr:    0.0000
     atom:   40    charge:    2.0756    magn:   -0.0003    constr:    0.0000
     atom:   41    charge:    2.0870    magn:   -0.0000    constr:    0.0000
     atom:   42    charge:    3.1151    magn:   -0.0002    constr:    0.0000
     atom:   43    charge:    2.0802    magn:    0.0030    constr:    0.0000
     atom:   44    charge:    2.0850    magn:    0.0008    constr:    0.0000
     atom:   45    charge:    2.0858    magn:    0.0004    constr:    0.0000
     atom:   46    charge:    3.1148    magn:   -0.0007    constr:    0.0000
     atom:   47    charge:    2.0807    magn:    0.0047    constr:    0.0000
     atom:   48    charge:    2.0837    magn:    0.0138    constr:    0.0000
     atom:   49    charge:    2.0502    magn:    0.2408    constr:    0.0000
     atom:   50    charge:    0.6724    magn:    0.0542    constr:    0.0000
     atom:   51    charge:    0.4221    magn:    0.0009    constr:    0.0000
     atom:   52    charge:    0.4227    magn:    0.0008    constr:    0.0000
     atom:   53    charge:    0.3705    magn:    0.0237    constr:    0.0000
     atom:   54    charge:    0.4229    magn:    0.0005    constr:    0.0000

     total cpu time spent up to now is     1437.4 secs

     total energy              =   -3021.14980639 Ry
     Harris-Foulkes estimate   =   -3021.14995199 Ry
     estimated scf accuracy    <       0.00112323 Ry

     total magnetization       =     1.06 Bohr mag/cell
     absolute magnetization    =     1.23 Bohr mag/cell

     iteration #  3     ecut=    40.42 Ry     beta=0.10
     Davidson diagonalization with overlap
     ethr =  2.82E-07,  avg # of iterations =  2.1

     negative rho (up, down):  1.189E-02 1.196E-02
 
     Magnetic moment per site:
     atom:    1    charge:    3.1244    magn:   -0.0003    constr:    0.0000
     atom:    2    charge:    2.0897    magn:    0.0003    constr:    0.0000
     atom:    3    charge:    3.1198    magn:   -0.0000    constr:    0.0000
     atom:    4    charge:    2.0867    magn:   -0.0001    constr:    0.0000
     atom:    5    charge:    3.1161    magn:   -0.0002    constr:    0.0000
     atom:    6    charge:    2.0795    magn:    0.0021    constr:    0.0000
     atom:    7    charge:    3.1168    magn:   -0.0054    constr:    0.0000
     atom:    8    charge:    2.0792    magn:    0.0252    constr:    0.0000
     atom:    9    charge:    3.1244    magn:   -0.0003    constr:    0.0000
     atom:   10    charge:    2.0898    magn:    0.0003    constr:    0.0000
     atom:   11    charge:    3.1198    magn:   -0.0000    constr:    0.0000
     atom:   12    charge:    2.0870    magn:   -0.0000    constr:    0.0000
     atom:   13    charge:    3.1150    magn:   -0.0002    constr:    0.0000
     atom:   14    charge:    2.0939    magn:    0.0023    constr:    0.0000
     atom:   15    charge:    3.1184    magn:   -0.0008    constr:    0.0000
     atom:   16    charge:    2.0827    magn:    0.0047    constr:    0.0000
     atom:   17    charge:    2.0624    magn:    0.0017    constr:    0.0000
     atom:   18    charge:    3.1239    magn:   -0.0001    constr:    0.0000
     atom:   19    charge:    2.0875    magn:    0.0001    constr:    0.0000
     atom:   20    charge:    2.0847    magn:    0.0002    constr:    0.0000
     atom:   21    charge:    2.0847    magn:    0.0002    constr:    0.0000
     atom:   22    charge:    3.1199    magn:    0.0000    constr:    0.0000
     atom:   23    charge:    2.0908    magn:    0.0002    constr:    0.0000
     atom:   24    charge:    2.0754    magn:   -0.0002    constr:    0.0000
     atom:   25    charge:    2.0867    magn:    0.0000    constr:    0.0000
     atom:   26    charge:    3.1127    magn:   -0.0002    constr:    0.0000
     atom:   27    charge:    2.0803    magn:    0.0025    constr:    0.0000
     atom:   28    charge:    2.0839    magn:    0.0006    constr:    0.0000
     atom:   29    charge:    2.0860    magn:    0.0008    constr:    0.0000
     atom:   30    charge:    3.1171    magn:   -0.0008    constr:    0.0000
     atom:   31    charge:    2.0827    magn:    0.0006    constr:    0.0000
     atom:   32    charge:    2.0830    magn:    0.0065    constr:    0.0000
     atom:   33    charge:    2.0624    magn:    0.0017    constr:    0.0000
     atom:   34    charge:    3.1239    magn:   -0.0001    constr:    0.0000
     atom:   35    charge:    2.0875    magn:    0.0001    constr:    0.0000
     atom:   36    charge:    2.0847    magn:    0.0002    constr:    0.0000
     atom:   37    charge:    2.0847    magn:    0.0002    constr:    0.0000
     atom:   38    charge:    3.1200    magn:    0.0000    constr:    0.0000
     atom:   39    charge:    2.0839    magn:    0.0002    constr:    0.0000
     atom:   40    charge:    2.0756    magn:   -0.0002    constr:    0.0000
     atom:   41    charge:    2.0870    magn:   -0.0000    constr:    0.0000
     atom:   42    charge:    3.1151    magn:   -0.0002    constr:    0.0000
     atom:   43    charge:    2.0803    magn:    0.0030    constr:    0.0000
     atom:   44    charge:    2.0851    magn:    0.0008    constr:    0.0000
     atom:   45    charge:    2.0858    magn:    0.0004    constr:    0.0000
     atom:   46    charge:    3.1148    magn:   -0.0007    constr:    0.0000
     atom:   47    charge:    2.0807    magn:    0.0047    constr:    0.0000
     atom:   48    charge:    2.0837    magn:    0.0138    constr:    0.0000
     atom:   49    charge:    2.0502    magn:    0.2411    constr:    0.0000
     atom:   50    charge:    0.6727    magn:    0.0541    constr:    0.0000
     atom:   51    charge:    0.4221    magn:    0.0009    constr:    0.0000
     atom:   52    charge:    0.4227    magn:    0.0008    constr:    0.0000
     atom:   53    charge:    0.3707    magn:    0.0236    constr:    0.0000
     atom:   54    charge:    0.4228    magn:    0.0004    constr:    0.0000

     total cpu time spent up to now is     1657.0 secs

     total energy              =   -3021.14976302 Ry
     Harris-Foulkes estimate   =   -3021.14987964 Ry
     estimated scf accuracy    <       0.00172060 Ry

     total magnetization       =     1.06 Bohr mag/cell
     absolute magnetization    =     1.23 Bohr mag/cell

     iteration #  4     ecut=    40.42 Ry     beta=0.10
     Davidson diagonalization with overlap
     ethr =  2.82E-07,  avg # of iterations =  1.0

     negative rho (up, down):  1.189E-02 1.196E-02
 
     Magnetic moment per site:
     atom:    1    charge:    3.1244    magn:   -0.0003    constr:    0.0000
     atom:    2    charge:    2.0897    magn:    0.0003    constr:    0.0000
     atom:    3    charge:    3.1198    magn:   -0.0000    constr:    0.0000
     atom:    4    charge:    2.0867    magn:   -0.0001    constr:    0.0000
     atom:    5    charge:    3.1161    magn:   -0.0002    constr:    0.0000
     atom:    6    charge:    2.0795    magn:    0.0021    constr:    0.0000
     atom:    7    charge:    3.1167    magn:   -0.0054    constr:    0.0000
     atom:    8    charge:    2.0792    magn:    0.0252    constr:    0.0000
     atom:    9    charge:    3.1244    magn:   -0.0003    constr:    0.0000
     atom:   10    charge:    2.0898    magn:    0.0003    constr:    0.0000
     atom:   11    charge:    3.1198    magn:   -0.0000    constr:    0.0000
     atom:   12    charge:    2.0871    magn:   -0.0000    constr:    0.0000
     atom:   13    charge:    3.1150    magn:   -0.0002    constr:    0.0000
     atom:   14    charge:    2.0939    magn:    0.0023    constr:    0.0000
     atom:   15    charge:    3.1184    magn:   -0.0008    constr:    0.0000
     atom:   16    charge:    2.0827    magn:    0.0047    constr:    0.0000
     atom:   17    charge:    2.0624    magn:    0.0016    constr:    0.0000
     atom:   18    charge:    3.1239    magn:   -0.0001    constr:    0.0000
     atom:   19    charge:    2.0876    magn:    0.0001    constr:    0.0000
     atom:   20    charge:    2.0847    magn:    0.0001    constr:    0.0000
     atom:   21    charge:    2.0847    magn:    0.0001    constr:    0.0000
     atom:   22    charge:    3.1199    magn:    0.0000    constr:    0.0000
     atom:   23    charge:    2.0908    magn:    0.0002    constr:    0.0000
     atom:   24    charge:    2.0754    magn:   -0.0001    constr:    0.0000
     atom:   25    charge:    2.0868    magn:    0.0000    constr:    0.0000
     atom:   26    charge:    3.1127    magn:   -0.0002    constr:    0.0000
     atom:   27    charge:    2.0802    magn:    0.0025    constr:    0.0000
     atom:   28    charge:    2.0839    magn:    0.0006    constr:    0.0000
     atom:   29    charge:    2.0860    magn:    0.0008    constr:    0.0000
     atom:   30    charge:    3.1171    magn:   -0.0008    constr:    0.0000
     atom:   31    charge:    2.0826    magn:    0.0006    constr:    0.0000
     atom:   32    charge:    2.0829    magn:    0.0065    constr:    0.0000
     atom:   33    charge:    2.0624    magn:    0.0016    constr:    0.0000
     atom:   34    charge:    3.1239    magn:   -0.0001    constr:    0.0000
     atom:   35    charge:    2.0876    magn:    0.0001    constr:    0.0000
     atom:   36    charge:    2.0847    magn:    0.0001    constr:    0.0000
     atom:   37    charge:    2.0847    magn:    0.0001    constr:    0.0000
     atom:   38    charge:    3.1200    magn:    0.0000    constr:    0.0000
     atom:   39    charge:    2.0839    magn:    0.0002    constr:    0.0000
     atom:   40    charge:    2.0756    magn:   -0.0002    constr:    0.0000
     atom:   41    charge:    2.0870    magn:   -0.0000    constr:    0.0000
     atom:   42    charge:    3.1151    magn:   -0.0002    constr:    0.0000
     atom:   43    charge:    2.0802    magn:    0.0031    constr:    0.0000
     atom:   44    charge:    2.0851    magn:    0.0009    constr:    0.0000
     atom:   45    charge:    2.0858    magn:    0.0004    constr:    0.0000
     atom:   46    charge:    3.1148    magn:   -0.0007    constr:    0.0000
     atom:   47    charge:    2.0806    magn:    0.0047    constr:    0.0000
     atom:   48    charge:    2.0837    magn:    0.0139    constr:    0.0000
     atom:   49    charge:    2.0503    magn:    0.2415    constr:    0.0000
     atom:   50    charge:    0.6729    magn:    0.0539    constr:    0.0000
     atom:   51    charge:    0.4221    magn:    0.0010    constr:    0.0000
     atom:   52    charge:    0.4228    magn:    0.0009    constr:    0.0000
     atom:   53    charge:    0.3710    magn:    0.0235    constr:    0.0000
     atom:   54    charge:    0.4228    magn:    0.0003    constr:    0.0000

     total cpu time spent up to now is     1856.8 secs

     total energy              =   -3021.14978026 Ry
     Harris-Foulkes estimate   =   -3021.14982092 Ry
     estimated scf accuracy    <       0.00049710 Ry

     total magnetization       =     1.06 Bohr mag/cell
     absolute magnetization    =     1.23 Bohr mag/cell

     iteration #  5     ecut=    40.42 Ry     beta=0.10
     Davidson diagonalization with overlap
     ethr =  1.25E-07,  avg # of iterations =  2.0

     negative rho (up, down):  1.190E-02 1.196E-02
 
     Magnetic moment per site:
     atom:    1    charge:    3.1244    magn:   -0.0003    constr:    0.0000
     atom:    2    charge:    2.0897    magn:    0.0002    constr:    0.0000
     atom:    3    charge:    3.1198    magn:   -0.0000    constr:    0.0000
     atom:    4    charge:    2.0867    magn:   -0.0001    constr:    0.0000
     atom:    5    charge:    3.1161    magn:   -0.0002    constr:    0.0000
     atom:    6    charge:    2.0795    magn:    0.0021    constr:    0.0000
     atom:    7    charge:    3.1166    magn:   -0.0055    constr:    0.0000
     atom:    8    charge:    2.0793    magn:    0.0253    constr:    0.0000
     atom:    9    charge:    3.1244    magn:   -0.0003    constr:    0.0000
     atom:   10    charge:    2.0898    magn:    0.0003    constr:    0.0000
     atom:   11    charge:    3.1198    magn:   -0.0000    constr:    0.0000
     atom:   12    charge:    2.0870    magn:   -0.0000    constr:    0.0000
     atom:   13    charge:    3.1150    magn:   -0.0002    constr:    0.0000
     atom:   14    charge:    2.0939    magn:    0.0023    constr:    0.0000
     atom:   15    charge:    3.1184    magn:   -0.0008    constr:    0.0000
     atom:   16    charge:    2.0828    magn:    0.0047    constr:    0.0000
     atom:   17    charge:    2.0624    magn:    0.0015    constr:    0.0000
     atom:   18    charge:    3.1239    magn:   -0.0001    constr:    0.0000
     atom:   19    charge:    2.0875    magn:    0.0001    constr:    0.0000
     atom:   20    charge:    2.0847    magn:    0.0001    constr:    0.0000
     atom:   21    charge:    2.0847    magn:    0.0001    constr:    0.0000
     atom:   22    charge:    3.1199    magn:    0.0000    constr:    0.0000
     atom:   23    charge:    2.0908    magn:    0.0002    constr:    0.0000
     atom:   24    charge:    2.0754    magn:   -0.0001    constr:    0.0000
     atom:   25    charge:    2.0867    magn:    0.0000    constr:    0.0000
     atom:   26    charge:    3.1127    magn:   -0.0002    constr:    0.0000
     atom:   27    charge:    2.0802    magn:    0.0026    constr:    0.0000
     atom:   28    charge:    2.0839    magn:    0.0007    constr:    0.0000
     atom:   29    charge:    2.0860    magn:    0.0008    constr:    0.0000
     atom:   30    charge:    3.1172    magn:   -0.0008    constr:    0.0000
     atom:   31    charge:    2.0824    magn:    0.0006    constr:    0.0000
     atom:   32    charge:    2.0828    magn:    0.0066    constr:    0.0000
     atom:   33    charge:    2.0624    magn:    0.0015    constr:    0.0000
     atom:   34    charge:    3.1239    magn:   -0.0001    constr:    0.0000
     atom:   35    charge:    2.0876    magn:    0.0001    constr:    0.0000
     atom:   36    charge:    2.0847    magn:    0.0001    constr:    0.0000
     atom:   37    charge:    2.0847    magn:    0.0001    constr:    0.0000
     atom:   38    charge:    3.1200    magn:    0.0000    constr:    0.0000
     atom:   39    charge:    2.0839    magn:    0.0002    constr:    0.0000
     atom:   40    charge:    2.0756    magn:   -0.0002    constr:    0.0000
     atom:   41    charge:    2.0870    magn:   -0.0000    constr:    0.0000
     atom:   42    charge:    3.1151    magn:   -0.0002    constr:    0.0000
     atom:   43    charge:    2.0803    magn:    0.0031    constr:    0.0000
     atom:   44    charge:    2.0851    magn:    0.0009    constr:    0.0000
     atom:   45    charge:    2.0858    magn:    0.0004    constr:    0.0000
     atom:   46    charge:    3.1148    magn:   -0.0007    constr:    0.0000
     atom:   47    charge:    2.0805    magn:    0.0047    constr:    0.0000
     atom:   48    charge:    2.0836    magn:    0.0140    constr:    0.0000
     atom:   49    charge:    2.0510    magn:    0.2420    constr:    0.0000
     atom:   50    charge:    0.6729    magn:    0.0536    constr:    0.0000
     atom:   51    charge:    0.4221    magn:    0.0010    constr:    0.0000
     atom:   52    charge:    0.4228    magn:    0.0009    constr:    0.0000
     atom:   53    charge:    0.3713    magn:    0.0234    constr:    0.0000
     atom:   54    charge:    0.4228    magn:    0.0002    constr:    0.0000

     total cpu time spent up to now is     2076.6 secs

     total energy              =   -3021.14977766 Ry
     Harris-Foulkes estimate   =   -3021.14979478 Ry
     estimated scf accuracy    <       0.00021384 Ry

     total magnetization       =     1.06 Bohr mag/cell
     absolute magnetization    =     1.23 Bohr mag/cell

     iteration #  6     ecut=    40.42 Ry     beta=0.10
     Davidson diagonalization with overlap
     ethr =  5.37E-08,  avg # of iterations =  2.0

     negative rho (up, down):  1.190E-02 1.196E-02
 
     Magnetic moment per site:
     atom:    1    charge:    3.1244    magn:   -0.0002    constr:    0.0000
     atom:    2    charge:    2.0897    magn:    0.0002    constr:    0.0000
     atom:    3    charge:    3.1198    magn:   -0.0000    constr:    0.0000
     atom:    4    charge:    2.0867    magn:   -0.0001    constr:    0.0000
     atom:    5    charge:    3.1161    magn:   -0.0003    constr:    0.0000
     atom:    6    charge:    2.0795    magn:    0.0021    constr:    0.0000
     atom:    7    charge:    3.1167    magn:   -0.0055    constr:    0.0000
     atom:    8    charge:    2.0793    magn:    0.0254    constr:    0.0000
     atom:    9    charge:    3.1244    magn:   -0.0002    constr:    0.0000
     atom:   10    charge:    2.0898    magn:    0.0002    constr:    0.0000
     atom:   11    charge:    3.1198    magn:   -0.0000    constr:    0.0000
     atom:   12    charge:    2.0870    magn:   -0.0000    constr:    0.0000
     atom:   13    charge:    3.1150    magn:   -0.0002    constr:    0.0000
     atom:   14    charge:    2.0939    magn:    0.0023    constr:    0.0000
     atom:   15    charge:    3.1184    magn:   -0.0008    constr:    0.0000
     atom:   16    charge:    2.0829    magn:    0.0048    constr:    0.0000
     atom:   17    charge:    2.0624    magn:    0.0013    constr:    0.0000
     atom:   18    charge:    3.1239    magn:   -0.0001    constr:    0.0000
     atom:   19    charge:    2.0875    magn:    0.0000    constr:    0.0000
     atom:   20    charge:    2.0847    magn:    0.0001    constr:    0.0000
     atom:   21    charge:    2.0847    magn:    0.0001    constr:    0.0000
     atom:   22    charge:    3.1199    magn:    0.0000    constr:    0.0000
     atom:   23    charge:    2.0908    magn:    0.0002    constr:    0.0000
     atom:   24    charge:    2.0754    magn:   -0.0001    constr:    0.0000
     atom:   25    charge:    2.0867    magn:    0.0000    constr:    0.0000
     atom:   26    charge:    3.1127    magn:   -0.0002    constr:    0.0000
     atom:   27    charge:    2.0803    magn:    0.0026    constr:    0.0000
     atom:   28    charge:    2.0839    magn:    0.0007    constr:    0.0000
     atom:   29    charge:    2.0860    magn:    0.0008    constr:    0.0000
     atom:   30    charge:    3.1171    magn:   -0.0008    constr:    0.0000
     atom:   31    charge:    2.0824    magn:    0.0006    constr:    0.0000
     atom:   32    charge:    2.0828    magn:    0.0066    constr:    0.0000
     atom:   33    charge:    2.0624    magn:    0.0013    constr:    0.0000
     atom:   34    charge:    3.1239    magn:   -0.0001    constr:    0.0000
     atom:   35    charge:    2.0876    magn:    0.0000    constr:    0.0000
     atom:   36    charge:    2.0847    magn:    0.0001    constr:    0.0000
     atom:   37    charge:    2.0847    magn:    0.0001    constr:    0.0000
     atom:   38    charge:    3.1200    magn:    0.0000    constr:    0.0000
     atom:   39    charge:    2.0839    magn:    0.0002    constr:    0.0000
     atom:   40    charge:    2.0756    magn:   -0.0002    constr:    0.0000
     atom:   41    charge:    2.0870    magn:   -0.0000    constr:    0.0000
     atom:   42    charge:    3.1151    magn:   -0.0002    constr:    0.0000
     atom:   43    charge:    2.0803    magn:    0.0032    constr:    0.0000
     atom:   44    charge:    2.0851    magn:    0.0009    constr:    0.0000
     atom:   45    charge:    2.0858    magn:    0.0005    constr:    0.0000
     atom:   46    charge:    3.1147    magn:   -0.0007    constr:    0.0000
     atom:   47    charge:    2.0805    magn:    0.0048    constr:    0.0000
     atom:   48    charge:    2.0836    magn:    0.0140    constr:    0.0000
     atom:   49    charge:    2.0515    magn:    0.2424    constr:    0.0000
     atom:   50    charge:    0.6726    magn:    0.0534    constr:    0.0000
     atom:   51    charge:    0.4221    magn:    0.0011    constr:    0.0000
     atom:   52    charge:    0.4227    magn:    0.0010    constr:    0.0000
     atom:   53    charge:    0.3716    magn:    0.0235    constr:    0.0000
     atom:   54    charge:    0.4229    magn:    0.0002    constr:    0.0000

     total cpu time spent up to now is     2296.5 secs

     total energy              =   -3021.14978441 Ry
     Harris-Foulkes estimate   =   -3021.14978459 Ry
     estimated scf accuracy    <       0.00007163 Ry

     total magnetization       =     1.06 Bohr mag/cell
     absolute magnetization    =     1.23 Bohr mag/cell

     iteration #  7     ecut=    40.42 Ry     beta=0.10
     Davidson diagonalization with overlap
     ethr =  1.80E-08,  avg # of iterations =  3.0

     negative rho (up, down):  1.189E-02 1.196E-02
 
     Magnetic moment per site:
     atom:    1    charge:    3.1244    magn:   -0.0002    constr:    0.0000
     atom:    2    charge:    2.0897    magn:    0.0002    constr:    0.0000
     atom:    3    charge:    3.1198    magn:   -0.0000    constr:    0.0000
     atom:    4    charge:    2.0867    magn:   -0.0001    constr:    0.0000
     atom:    5    charge:    3.1161    magn:   -0.0003    constr:    0.0000
     atom:    6    charge:    2.0795    magn:    0.0021    constr:    0.0000
     atom:    7    charge:    3.1167    magn:   -0.0056    constr:    0.0000
     atom:    8    charge:    2.0793    magn:    0.0254    constr:    0.0000
     atom:    9    charge:    3.1244    magn:   -0.0002    constr:    0.0000
     atom:   10    charge:    2.0898    magn:    0.0002    constr:    0.0000
     atom:   11    charge:    3.1198    magn:   -0.0000    constr:    0.0000
     atom:   12    charge:    2.0870    magn:   -0.0000    constr:    0.0000
     atom:   13    charge:    3.1150    magn:   -0.0002    constr:    0.0000
     atom:   14    charge:    2.0939    magn:    0.0023    constr:    0.0000
     atom:   15    charge:    3.1184    magn:   -0.0008    constr:    0.0000
     atom:   16    charge:    2.0829    magn:    0.0048    constr:    0.0000
     atom:   17    charge:    2.0624    magn:    0.0012    constr:    0.0000
     atom:   18    charge:    3.1240    magn:   -0.0000    constr:    0.0000
     atom:   19    charge:    2.0875    magn:    0.0000    constr:    0.0000
     atom:   20    charge:    2.0847    magn:    0.0001    constr:    0.0000
     atom:   21    charge:    2.0847    magn:    0.0001    constr:    0.0000
     atom:   22    charge:    3.1199    magn:    0.0000    constr:    0.0000
     atom:   23    charge:    2.0908    magn:    0.0003    constr:    0.0000
     atom:   24    charge:    2.0754    magn:   -0.0001    constr:    0.0000
     atom:   25    charge:    2.0867    magn:    0.0000    constr:    0.0000
     atom:   26    charge:    3.1127    magn:   -0.0003    constr:    0.0000
     atom:   27    charge:    2.0803    magn:    0.0027    constr:    0.0000
     atom:   28    charge:    2.0839    magn:    0.0007    constr:    0.0000
     atom:   29    charge:    2.0860    magn:    0.0009    constr:    0.0000
     atom:   30    charge:    3.1171    magn:   -0.0008    constr:    0.0000
     atom:   31    charge:    2.0825    magn:    0.0006    constr:    0.0000
     atom:   32    charge:    2.0829    magn:    0.0066    constr:    0.0000
     atom:   33    charge:    2.0624    magn:    0.0012    constr:    0.0000
     atom:   34    charge:    3.1239    magn:   -0.0000    constr:    0.0000
     atom:   35    charge:    2.0876    magn:    0.0000    constr:    0.0000
     atom:   36    charge:    2.0847    magn:    0.0001    constr:    0.0000
     atom:   37    charge:    2.0847    magn:    0.0001    constr:    0.0000
     atom:   38    charge:    3.1200    magn:    0.0000    constr:    0.0000
     atom:   39    charge:    2.0839    magn:    0.0002    constr:    0.0000
     atom:   40    charge:    2.0756    magn:   -0.0001    constr:    0.0000
     atom:   41    charge:    2.0870    magn:   -0.0000    constr:    0.0000
     atom:   42    charge:    3.1151    magn:   -0.0002    constr:    0.0000
     atom:   43    charge:    2.0803    magn:    0.0032    constr:    0.0000
     atom:   44    charge:    2.0851    magn:    0.0010    constr:    0.0000
     atom:   45    charge:    2.0858    magn:    0.0005    constr:    0.0000
     atom:   46    charge:    3.1147    magn:   -0.0007    constr:    0.0000
     atom:   47    charge:    2.0806    magn:    0.0048    constr:    0.0000
     atom:   48    charge:    2.0837    magn:    0.0140    constr:    0.0000
     atom:   49    charge:    2.0515    magn:    0.2426    constr:    0.0000
     atom:   50    charge:    0.6723    magn:    0.0533    constr:    0.0000
     atom:   51    charge:    0.4221    magn:    0.0011    constr:    0.0000
     atom:   52    charge:    0.4227    magn:    0.0010    constr:    0.0000
     atom:   53    charge:    0.3717    magn:    0.0235    constr:    0.0000
     atom:   54    charge:    0.4230    magn:    0.0002    constr:    0.0000

     total cpu time spent up to now is     2534.2 secs

     total energy              =   -3021.14978815 Ry
     Harris-Foulkes estimate   =   -3021.14978787 Ry
     estimated scf accuracy    <       0.00001562 Ry

     total magnetization       =     1.06 Bohr mag/cell
     absolute magnetization    =     1.23 Bohr mag/cell

     iteration #  8     ecut=    40.42 Ry     beta=0.10
     Davidson diagonalization with overlap
     ethr =  3.92E-09,  avg # of iterations =  3.0

     negative rho (up, down):  1.189E-02 1.196E-02
 
     Magnetic moment per site:
     atom:    1    charge:    3.1244    magn:   -0.0002    constr:    0.0000
     atom:    2    charge:    2.0897    magn:    0.0002    constr:    0.0000
     atom:    3    charge:    3.1198    magn:   -0.0000    constr:    0.0000
     atom:    4    charge:    2.0867    magn:   -0.0001    constr:    0.0000
     atom:    5    charge:    3.1161    magn:   -0.0003    constr:    0.0000
     atom:    6    charge:    2.0795    magn:    0.0022    constr:    0.0000
     atom:    7    charge:    3.1167    magn:   -0.0056    constr:    0.0000
     atom:    8    charge:    2.0793    magn:    0.0255    constr:    0.0000
     atom:    9    charge:    3.1244    magn:   -0.0002    constr:    0.0000
     atom:   10    charge:    2.0898    magn:    0.0002    constr:    0.0000
     atom:   11    charge:    3.1198    magn:   -0.0000    constr:    0.0000
     atom:   12    charge:    2.0870    magn:   -0.0000    constr:    0.0000
     atom:   13    charge:    3.1150    magn:   -0.0002    constr:    0.0000
     atom:   14    charge:    2.0939    magn:    0.0023    constr:    0.0000
     atom:   15    charge:    3.1184    magn:   -0.0008    constr:    0.0000
     atom:   16    charge:    2.0828    magn:    0.0048    constr:    0.0000
     atom:   17    charge:    2.0624    magn:    0.0011    constr:    0.0000
     atom:   18    charge:    3.1239    magn:   -0.0000    constr:    0.0000
     atom:   19    charge:    2.0875    magn:    0.0000    constr:    0.0000
     atom:   20    charge:    2.0847    magn:    0.0001    constr:    0.0000
     atom:   21    charge:    2.0847    magn:    0.0001    constr:    0.0000
     atom:   22    charge:    3.1199    magn:    0.0000    constr:    0.0000
     atom:   23    charge:    2.0908    magn:    0.0003    constr:    0.0000
     atom:   24    charge:    2.0754    magn:   -0.0001    constr:    0.0000
     atom:   25    charge:    2.0867    magn:    0.0000    constr:    0.0000
     atom:   26    charge:    3.1127    magn:   -0.0003    constr:    0.0000
     atom:   27    charge:    2.0802    magn:    0.0027    constr:    0.0000
     atom:   28    charge:    2.0839    magn:    0.0007    constr:    0.0000
     atom:   29    charge:    2.0860    magn:    0.0009    constr:    0.0000
     atom:   30    charge:    3.1171    magn:   -0.0008    constr:    0.0000
     atom:   31    charge:    2.0825    magn:    0.0006    constr:    0.0000
     atom:   32    charge:    2.0829    magn:    0.0066    constr:    0.0000
     atom:   33    charge:    2.0624    magn:    0.0011    constr:    0.0000
     atom:   34    charge:    3.1239    magn:   -0.0000    constr:    0.0000
     atom:   35    charge:    2.0876    magn:    0.0000    constr:    0.0000
     atom:   36    charge:    2.0847    magn:    0.0001    constr:    0.0000
     atom:   37    charge:    2.0847    magn:    0.0001    constr:    0.0000
     atom:   38    charge:    3.1200    magn:    0.0000    constr:    0.0000
     atom:   39    charge:    2.0839    magn:    0.0002    constr:    0.0000
     atom:   40    charge:    2.0756    magn:   -0.0001    constr:    0.0000
     atom:   41    charge:    2.0870    magn:   -0.0000    constr:    0.0000
     atom:   42    charge:    3.1151    magn:   -0.0002    constr:    0.0000
     atom:   43    charge:    2.0803    magn:    0.0032    constr:    0.0000
     atom:   44    charge:    2.0851    magn:    0.0010    constr:    0.0000
     atom:   45    charge:    2.0858    magn:    0.0005    constr:    0.0000
     atom:   46    charge:    3.1148    magn:   -0.0007    constr:    0.0000
     atom:   47    charge:    2.0806    magn:    0.0048    constr:    0.0000
     atom:   48    charge:    2.0837    magn:    0.0141    constr:    0.0000
     atom:   49    charge:    2.0515    magn:    0.2427    constr:    0.0000
     atom:   50    charge:    0.6722    magn:    0.0532    constr:    0.0000
     atom:   51    charge:    0.4221    magn:    0.0011    constr:    0.0000
     atom:   52    charge:    0.4227    magn:    0.0010    constr:    0.0000
     atom:   53    charge:    0.3717    magn:    0.0235    constr:    0.0000
     atom:   54    charge:    0.4231    magn:    0.0002    constr:    0.0000

     total cpu time spent up to now is     2771.3 secs

     total energy              =   -3021.14978941 Ry
     Harris-Foulkes estimate   =   -3021.14978912 Ry
     estimated scf accuracy    <       0.00000531 Ry

     total magnetization       =     1.06 Bohr mag/cell
     absolute magnetization    =     1.23 Bohr mag/cell

     iteration #  9     ecut=    40.42 Ry     beta=0.10
     Davidson diagonalization with overlap
     ethr =  1.34E-09,  avg # of iterations =  2.8

     negative rho (up, down):  1.189E-02 1.196E-02
 
     Magnetic moment per site:
     atom:    1    charge:    3.1244    magn:   -0.0002    constr:    0.0000
     atom:    2    charge:    2.0897    magn:    0.0001    constr:    0.0000
     atom:    3    charge:    3.1198    magn:   -0.0000    constr:    0.0000
     atom:    4    charge:    2.0867    magn:   -0.0001    constr:    0.0000
     atom:    5    charge:    3.1161    magn:   -0.0003    constr:    0.0000
     atom:    6    charge:    2.0795    magn:    0.0022    constr:    0.0000
     atom:    7    charge:    3.1167    magn:   -0.0057    constr:    0.0000
     atom:    8    charge:    2.0792    magn:    0.0255    constr:    0.0000
     atom:    9    charge:    3.1244    magn:   -0.0002    constr:    0.0000
     atom:   10    charge:    2.0898    magn:    0.0002    constr:    0.0000
     atom:   11    charge:    3.1198    magn:   -0.0000    constr:    0.0000
     atom:   12    charge:    2.0870    magn:   -0.0000    constr:    0.0000
     atom:   13    charge:    3.1150    magn:   -0.0002    constr:    0.0000
     atom:   14    charge:    2.0939    magn:    0.0023    constr:    0.0000
     atom:   15    charge:    3.1184    magn:   -0.0008    constr:    0.0000
     atom:   16    charge:    2.0828    magn:    0.0048    constr:    0.0000
     atom:   17    charge:    2.0624    magn:    0.0010    constr:    0.0000
     atom:   18    charge:    3.1239    magn:   -0.0000    constr:    0.0000
     atom:   19    charge:    2.0875    magn:    0.0000    constr:    0.0000
     atom:   20    charge:    2.0847    magn:    0.0001    constr:    0.0000
     atom:   21    charge:    2.0847    magn:    0.0001    constr:    0.0000
     atom:   22    charge:    3.1199    magn:    0.0000    constr:    0.0000
     atom:   23    charge:    2.0908    magn:    0.0003    constr:    0.0000
     atom:   24    charge:    2.0754    magn:   -0.0000    constr:    0.0000
     atom:   25    charge:    2.0867    magn:    0.0000    constr:    0.0000
     atom:   26    charge:    3.1127    magn:   -0.0003    constr:    0.0000
     atom:   27    charge:    2.0802    magn:    0.0027    constr:    0.0000
     atom:   28    charge:    2.0839    magn:    0.0008    constr:    0.0000
     atom:   29    charge:    2.0860    magn:    0.0009    constr:    0.0000
     atom:   30    charge:    3.1171    magn:   -0.0008    constr:    0.0000
     atom:   31    charge:    2.0825    magn:    0.0006    constr:    0.0000
     atom:   32    charge:    2.0829    magn:    0.0066    constr:    0.0000
     atom:   33    charge:    2.0624    magn:    0.0010    constr:    0.0000
     atom:   34    charge:    3.1239    magn:   -0.0000    constr:    0.0000
     atom:   35    charge:    2.0876    magn:    0.0000    constr:    0.0000
     atom:   36    charge:    2.0847    magn:    0.0001    constr:    0.0000
     atom:   37    charge:    2.0847    magn:    0.0001    constr:    0.0000
     atom:   38    charge:    3.1200    magn:    0.0000    constr:    0.0000
     atom:   39    charge:    2.0839    magn:    0.0002    constr:    0.0000
     atom:   40    charge:    2.0756    magn:   -0.0001    constr:    0.0000
     atom:   41    charge:    2.0870    magn:   -0.0000    constr:    0.0000
     atom:   42    charge:    3.1151    magn:   -0.0003    constr:    0.0000
     atom:   43    charge:    2.0803    magn:    0.0033    constr:    0.0000
     atom:   44    charge:    2.0851    magn:    0.0010    constr:    0.0000
     atom:   45    charge:    2.0858    magn:    0.0005    constr:    0.0000
     atom:   46    charge:    3.1148    magn:   -0.0007    constr:    0.0000
     atom:   47    charge:    2.0806    magn:    0.0048    constr:    0.0000
     atom:   48    charge:    2.0837    magn:    0.0141    constr:    0.0000
     atom:   49    charge:    2.0514    magn:    0.2429    constr:    0.0000
     atom:   50    charge:    0.6721    magn:    0.0531    constr:    0.0000
     atom:   51    charge:    0.4221    magn:    0.0012    constr:    0.0000
     atom:   52    charge:    0.4227    magn:    0.0010    constr:    0.0000
     atom:   53    charge:    0.3718    magn:    0.0235    constr:    0.0000
     atom:   54    charge:    0.4232    magn:    0.0002    constr:    0.0000

     total cpu time spent up to now is     3003.4 secs

     total energy              =   -3021.14978973 Ry
     Harris-Foulkes estimate   =   -3021.14978965 Ry
     estimated scf accuracy    <       0.00000205 Ry

     total magnetization       =     1.06 Bohr mag/cell
     absolute magnetization    =     1.23 Bohr mag/cell

     iteration # 10     ecut=    40.42 Ry     beta=0.10
     Davidson diagonalization with overlap
     ethr =  5.16E-10,  avg # of iterations =  3.0

     negative rho (up, down):  1.189E-02 1.196E-02
 
     Magnetic moment per site:
     atom:    1    charge:    3.1244    magn:   -0.0001    constr:    0.0000
     atom:    2    charge:    2.0897    magn:    0.0001    constr:    0.0000
     atom:    3    charge:    3.1198    magn:   -0.0000    constr:    0.0000
     atom:    4    charge:    2.0867    magn:   -0.0001    constr:    0.0000
     atom:    5    charge:    3.1161    magn:   -0.0003    constr:    0.0000
     atom:    6    charge:    2.0795    magn:    0.0022    constr:    0.0000
     atom:    7    charge:    3.1167    magn:   -0.0057    constr:    0.0000
     atom:    8    charge:    2.0793    magn:    0.0256    constr:    0.0000
     atom:    9    charge:    3.1244    magn:   -0.0001    constr:    0.0000
     atom:   10    charge:    2.0898    magn:    0.0001    constr:    0.0000
     atom:   11    charge:    3.1198    magn:   -0.0000    constr:    0.0000
     atom:   12    charge:    2.0870    magn:   -0.0000    constr:    0.0000
     atom:   13    charge:    3.1150    magn:   -0.0002    constr:    0.0000
     atom:   14    charge:    2.0939    magn:    0.0023    constr:    0.0000
     atom:   15    charge:    3.1184    magn:   -0.0008    constr:    0.0000
     atom:   16    charge:    2.0829    magn:    0.0048    constr:    0.0000
     atom:   17    charge:    2.0624    magn:    0.0007    constr:    0.0000
     atom:   18    charge:    3.1239    magn:   -0.0000    constr:    0.0000
     atom:   19    charge:    2.0875    magn:    0.0000    constr:    0.0000
     atom:   20    charge:    2.0847    magn:    0.0001    constr:    0.0000
     atom:   21    charge:    2.0847    magn:    0.0001    constr:    0.0000
     atom:   22    charge:    3.1199    magn:    0.0000    constr:    0.0000
     atom:   23    charge:    2.0908    magn:    0.0003    constr:    0.0000
     atom:   24    charge:    2.0754    magn:   -0.0000    constr:    0.0000
     atom:   25    charge:    2.0867    magn:    0.0000    constr:    0.0000
     atom:   26    charge:    3.1127    magn:   -0.0003    constr:    0.0000
     atom:   27    charge:    2.0803    magn:    0.0028    constr:    0.0000
     atom:   28    charge:    2.0839    magn:    0.0008    constr:    0.0000
     atom:   29    charge:    2.0860    magn:    0.0009    constr:    0.0000
     atom:   30    charge:    3.1171    magn:   -0.0008    constr:    0.0000
     atom:   31    charge:    2.0825    magn:    0.0006    constr:    0.0000
     atom:   32    charge:    2.0829    magn:    0.0066    constr:    0.0000
     atom:   33    charge:    2.0624    magn:    0.0007    constr:    0.0000
     atom:   34    charge:    3.1239    magn:   -0.0000    constr:    0.0000
     atom:   35    charge:    2.0875    magn:    0.0000    constr:    0.0000
     atom:   36    charge:    2.0847    magn:    0.0001    constr:    0.0000
     atom:   37    charge:    2.0847    magn:    0.0001    constr:    0.0000
     atom:   38    charge:    3.1200    magn:    0.0000    constr:    0.0000
     atom:   39    charge:    2.0839    magn:    0.0002    constr:    0.0000
     atom:   40    charge:    2.0756    magn:   -0.0001    constr:    0.0000
     atom:   41    charge:    2.0870    magn:   -0.0000    constr:    0.0000
     atom:   42    charge:    3.1151    magn:   -0.0003    constr:    0.0000
     atom:   43    charge:    2.0803    magn:    0.0033    constr:    0.0000
     atom:   44    charge:    2.0851    magn:    0.0010    constr:    0.0000
     atom:   45    charge:    2.0858    magn:    0.0006    constr:    0.0000
     atom:   46    charge:    3.1147    magn:   -0.0007    constr:    0.0000
     atom:   47    charge:    2.0806    magn:    0.0048    constr:    0.0000
     atom:   48    charge:    2.0837    magn:    0.0142    constr:    0.0000
     atom:   49    charge:    2.0515    magn:    0.2431    constr:    0.0000
     atom:   50    charge:    0.6723    magn:    0.0530    constr:    0.0000
     atom:   51    charge:    0.4221    magn:    0.0012    constr:    0.0000
     atom:   52    charge:    0.4227    magn:    0.0011    constr:    0.0000
     atom:   53    charge:    0.3718    magn:    0.0235    constr:    0.0000
     atom:   54    charge:    0.4231    magn:    0.0002    constr:    0.0000

     total cpu time spent up to now is     3250.4 secs

     End of self-consistent calculation

 ------ SPIN UP ------------


          k = 0.0000 0.0000 0.0000 ( 34665 PWs)   bands (ev):

   -58.3143 -58.2793 -57.3963 -57.3906 -57.3575 -57.3200 -57.2688 -57.1010
   -57.0733 -57.0676 -57.0291 -56.9305 -56.9034 -56.8953 -56.8086 -56.7702
   -34.7595 -34.5829 -34.5541 -34.5209 -34.4259 -34.3690 -33.8913 -33.8791
   -33.7612 -33.6879 -33.6458 -33.6031 -33.5708 -33.5638 -33.5579 -33.5513
   -33.5401 -33.5250 -33.4995 -33.4984 -33.4838 -33.4824 -33.4793 -33.4612
   -33.3499 -33.3435 -33.3404 -33.3381 -33.3259 -33.2970 -33.2911 -33.2713
   -33.2511 -33.2457 -33.2452 -33.2359 -33.2046 -33.1853 -33.1496 -33.1491
   -33.1095 -33.0866 -33.0592 -33.0367 -33.0234 -32.9975 -32.9575 -32.8897
   -18.4795 -18.0470 -17.8230 -17.7219 -17.5622 -17.5399 -17.4970 -17.3943
   -17.3680 -17.2674 -17.0558 -17.0349 -17.0271 -16.9941 -16.9335 -16.8649
   -16.8457 -16.8085 -16.7506 -16.7205 -16.7005 -16.6686 -16.6031 -16.5990
   -16.4761 -16.4288 -16.4093 -16.3740 -16.3362 -16.1557 -16.0945 -15.6099
   -15.5490 -11.1804  -6.0580  -5.5071  -5.2930  -5.2129  -5.1042  -5.0013
    -4.9921  -4.9015  -4.8886  -4.7420  -4.6601  -4.6097  -4.5958  -4.5203
    -4.4392  -4.4240  -4.3629  -4.3267  -4.2419  -4.2292  -4.2040  -4.1524
    -4.0415  -4.0346  -3.9893  -3.9192  -3.9023  -3.8964  -3.8937  -3.8324
    -3.7869  -3.7622  -3.6775  -3.6477  -3.6377  -3.5909  -3.5517  -3.5379
    -3.5239  -3.4283  -3.4176  -3.3706  -3.2831  -3.2425  -3.1981  -3.0968
    -2.9307  -2.9069  -2.8616  -2.8121  -2.7560  -2.7038  -2.6820  -2.6709
    -2.6438  -2.5466  -2.4976  -2.4490  -2.3878  -2.3443  -2.2587  -2.2392
    -2.2356  -2.1704  -2.0785  -2.0513  -2.0135  -1.9695  -1.9398  -1.9092
    -1.8644  -1.7473  -1.7041  -1.6782  -1.6511  -1.6404  -1.5963  -1.5160
    -1.4311  -1.3779  -1.3629  -1.3482  -1.3251  -1.2778  -1.2348  -1.1804
    -1.1700  -1.1204  -1.1195  -1.1086  -1.0753  -0.9908  -0.8832  -0.8467
    -0.8184  -0.7032  -0.6974  -0.6340  -0.5621  -0.5213  -0.4935  -0.1969
     1.0166   1.1134   1.4082   1.6865   1.7948   1.9128   1.9600   2.0068
     2.0370   2.1240   2.2006   2.2215   2.2674   2.3865   2.4615   2.4755
     2.4825   2.5095   2.6127   2.6580   2.6627   2.6796   2.7014   2.8183
     2.8330   2.8777   2.8919   2.9452   2.9594   3.0125   3.0212   3.0427
     3.0966   3.1519   3.1901   3.1914   3.2389   3.2470   3.4024   3.4383
     3.4699   3.5117   3.5888   3.6178   3.6623   3.7055   3.8199   3.9474
     4.0952   4.1268   4.3177   4.4641   4.5859   4.6978   4.7762   4.8272
     5.0774   5.1241   5.2054   5.3455   5.3897   5.3946   5.4223   5.4242
     5.4512   5.5136   5.5462   5.6536   5.7098   5.7294   5.8974   5.9209
     5.9475   6.0667   6.0852   6.1274   6.2112   6.2861   6.4139   6.4809
     6.5339   6.5668   6.7748   6.8064   7.2151   7.9160   8.1510   8.1693
     8.3572   8.3848   8.6589   8.7143   8.7464   8.9661   9.1507   9.2533
     9.3039   9.4540   9.6270

          k = 0.0000 0.0280 0.0000 ( 34717 PWs)   bands (ev):

   -58.3120 -58.2816 -57.3946 -57.3889 -57.3599 -57.3211 -57.2684 -57.1008
   -57.0734 -57.0659 -57.0311 -56.9282 -56.9036 -56.8976 -56.8061 -56.7727
   -34.7341 -34.5809 -34.5560 -34.5146 -34.4324 -34.3961 -33.8659 -33.8536
   -33.7404 -33.6816 -33.6396 -33.6006 -33.5777 -33.5601 -33.5522 -33.5441
   -33.5393 -33.5267 -33.5236 -33.5065 -33.4990 -33.4822 -33.4743 -33.4547
   -33.3445 -33.3384 -33.3250 -33.3236 -33.3174 -33.3136 -33.2886 -33.2696
   -33.2558 -33.2475 -33.2458 -33.2353 -33.2115 -33.2066 -33.1558 -33.1431
   -33.1212 -33.0832 -33.0654 -33.0366 -33.0231 -33.0023 -32.9849 -32.9184
   -18.4212 -17.9873 -17.7730 -17.6917 -17.6162 -17.5174 -17.4481 -17.3822
   -17.3368 -17.2981 -17.1069 -17.0137 -17.0057 -16.9831 -16.9367 -16.8861
   -16.8064 -16.7841 -16.7717 -16.7467 -16.7191 -16.6942 -16.6283 -16.5767
   -16.4902 -16.4541 -16.4161 -16.3973 -16.3684 -16.1744 -16.1361 -15.6239
   -15.5745 -11.1813  -5.9726  -5.4229  -5.2136  -5.1423  -5.0338  -4.9605
    -4.9345  -4.8855  -4.8176  -4.7394  -4.6786  -4.6638  -4.5368  -4.5258
    -4.4268  -4.3871  -4.3732  -4.3335  -4.2681  -4.2216  -4.2085  -4.1872
    -4.1102  -4.0777  -4.0268  -4.0101  -3.9890  -3.9813  -3.9323  -3.8638
    -3.8248  -3.7641  -3.7572  -3.7249  -3.6594  -3.6482  -3.5643  -3.4480
    -3.4125  -3.3301  -3.3116  -3.3104  -3.2778  -3.1340  -3.1141  -2.9546
    -2.9135  -2.8924  -2.8111  -2.7588  -2.7543  -2.7313  -2.6980  -2.6617
    -2.6092  -2.5274  -2.4679  -2.4535  -2.4258  -2.2903  -2.2655  -2.2340
    -2.2230  -2.1633  -2.1553  -2.0400  -1.9936  -1.9685  -1.9357  -1.9235
    -1.8850  -1.7773  -1.7694  -1.7293  -1.6908  -1.6209  -1.5925  -1.5823
    -1.5118  -1.4701  -1.4017  -1.3879  -1.3847  -1.3678  -1.2952  -1.2825
    -1.2455  -1.1852  -1.1656  -1.0799  -1.0035  -0.9638  -0.9415  -0.9070
    -0.8864  -0.8508  -0.7398  -0.6096  -0.5828  -0.5691  -0.5496  -0.2380
     1.1492   1.1543   1.4095   1.8229   1.8671   1.8847   1.9173   1.9937
     2.0519   2.0699   2.2909   2.2993   2.3319   2.4490   2.4850   2.5056
     2.5136   2.5353   2.5401   2.5887   2.7060   2.7237   2.7938   2.8048
     2.8269   2.8912   2.9277   2.9560   2.9726   2.9855   3.0065   3.0573
     3.0776   3.1141   3.1675   3.2260   3.2385   3.3191   3.4272   3.4680
     3.5048   3.5347   3.5574   3.5800   3.6357   3.6586   3.7782   3.8995
     4.0495   4.1938   4.2740   4.5173   4.6966   4.6991   4.8063   4.9022
     5.1044   5.1646   5.2495   5.2940   5.3640   5.4035   5.4261   5.4718
     5.4981   5.5380   5.5485   5.6527   5.6970   5.7054   5.8150   5.8756
     5.9395   5.9829   6.0370   6.0433   6.1711   6.2439   6.3798   6.4255
     6.4428   6.5514   6.7231   6.8099   7.3214   7.4465   7.9996   8.0728
     8.3413   8.4931   8.5352   8.7158   8.7889   8.9914   9.1111   9.3107
     9.3740   9.4478   9.5245

          k = 0.0000 0.0560 0.0000 ( 34721 PWs)   bands (ev):

   -58.3056 -58.2880 -57.3913 -57.3838 -57.3663 -57.3233 -57.2676 -57.1004
   -57.0739 -57.0612 -57.0361 -56.9217 -56.9041 -56.9041 -56.7994 -56.7794
   -34.6642 -34.5756 -34.5612 -34.4975 -34.4692 -34.4500 -33.7961 -33.7842
   -33.6897 -33.6647 -33.6229 -33.6008 -33.6000 -33.5943 -33.5796 -33.5760
   -33.5481 -33.5394 -33.5218 -33.5038 -33.4802 -33.4754 -33.4724 -33.4207
   -33.3791 -33.3342 -33.3320 -33.3179 -33.2901 -33.2802 -33.2649 -33.2649
   -33.2635 -33.2553 -33.2521 -33.2341 -33.2255 -33.2163 -33.1726 -33.1406
   -33.1269 -33.0820 -33.0803 -33.0588 -33.0361 -33.0230 -33.0143 -32.9889
   -18.2600 -17.8226 -17.8000 -17.6432 -17.6090 -17.4193 -17.4002 -17.3817
   -17.3176 -17.2746 -17.2398 -17.0532 -16.9961 -16.9297 -16.9261 -16.9087
   -16.8507 -16.8257 -16.7371 -16.7136 -16.7081 -16.6827 -16.6341 -16.5696
   -16.5232 -16.5175 -16.4636 -16.4505 -16.4232 -16.2395 -16.2168 -15.6524
   -15.6282 -11.1830  -5.7332  -5.1900  -5.0540  -4.9973  -4.9599  -4.9002
    -4.8568  -4.8408  -4.8235  -4.7781  -4.7416  -4.5623  -4.5169  -4.4740
    -4.4022  -4.4013  -4.3597  -4.3286  -4.3141  -4.2960  -4.2590  -4.2218
    -4.2175  -4.2000  -4.1386  -4.0673  -4.0231  -3.9835  -3.9735  -3.9163
    -3.8785  -3.8242  -3.7454  -3.6783  -3.6390  -3.5511  -3.4204  -3.4131
    -3.3728  -3.2947  -3.2550  -3.1422  -3.0975  -3.0785  -3.0471  -3.0194
    -2.9761  -2.9657  -2.8350  -2.8051  -2.7486  -2.7043  -2.6592  -2.5653
    -2.4916  -2.4831  -2.4492  -2.3638  -2.3106  -2.3049  -2.2311  -2.1974
    -2.1616  -2.1475  -2.1275  -2.0952  -2.0625  -2.0190  -2.0041  -1.9779
    -1.9426  -1.9012  -1.8903  -1.8692  -1.8227  -1.7610  -1.6668  -1.6160
    -1.6031  -1.5864  -1.5211  -1.4823  -1.4593  -1.4543  -1.4402  -1.3853
    -1.3006  -1.2801  -1.2239  -1.2108  -1.0987  -1.0185  -0.9881  -0.9531
    -0.8681  -0.8450  -0.7466  -0.7242  -0.6290  -0.5910  -0.5728  -0.3414
     1.2781   1.4199   1.4925   1.7137   1.7905   1.8834   1.9542   2.0517
     2.1323   2.2680   2.2733   2.3249   2.4088   2.4780   2.4973   2.5235
     2.5645   2.6036   2.6541   2.7013   2.7447   2.7618   2.7931   2.8416
     2.8570   2.8759   2.8856   2.9554   3.0018   3.0199   3.0288   3.0558
     3.1167   3.1500   3.1734   3.2516   3.3000   3.3314   3.3782   3.4270
     3.4642   3.4797   3.5552   3.6037   3.6665   3.6787   3.7185   3.7941
     3.9163   4.1512   4.3160   4.6444   4.7347   4.8351   4.9274   5.0653
     5.0706   5.1690   5.2745   5.3262   5.3942   5.4293   5.4626   5.4917
     5.4920   5.5544   5.5744   5.6403   5.6452   5.7459   5.7640   5.8071
     5.8544   5.8629   5.8808   5.9224   6.1096   6.1521   6.2918   6.3705
     6.4171   6.4364   6.7144   6.7421   7.0014   7.2225   7.6160   7.7499
     8.2060   8.3814   8.7129   8.8172   8.8410   8.8929   9.1850   9.3525
     9.4269   9.6030   9.7136

          k = 0.0000-0.0840 0.0000 ( 34678 PWs)   bands (ev):

   -58.2975 -58.2961 -57.3897 -57.3774 -57.3731 -57.3245 -57.2673 -57.1002
   -57.0742 -57.0579 -57.0395 -56.9133 -56.9126 -56.9043 -56.7926 -56.7863
   -34.5693 -34.5683 -34.5673 -34.5668 -34.4744 -34.4732 -33.7123 -33.6991
   -33.6954 -33.6569 -33.6556 -33.6497 -33.6180 -33.6018 -33.5977 -33.5872
   -33.5465 -33.5413 -33.5213 -33.5130 -33.4772 -33.4712 -33.4092 -33.3951
   -33.3888 -33.3729 -33.3358 -33.3310 -33.3148 -33.2823 -33.2694 -33.2605
   -33.2587 -33.2582 -33.2339 -33.2296 -33.1812 -33.1585 -33.1576 -33.1484
   -33.1344 -33.1320 -33.1049 -33.1042 -33.0365 -33.0280 -33.0253 -33.0194
   -18.0350 -18.0342 -17.6028 -17.5937 -17.5201 -17.4957 -17.4954 -17.4053
   -17.2684 -17.2281 -17.1403 -17.1165 -17.0828 -17.0474 -16.9010 -16.8551
   -16.8180 -16.8177 -16.8163 -16.6850 -16.6231 -16.6197 -16.6134 -16.5896
   -16.5598 -16.5377 -16.5177 -16.4852 -16.4759 -16.2820 -16.2580 -15.6617
   -15.6617 -11.1839  -5.3937  -5.3934  -4.8975  -4.8965  -4.8932  -4.8826
    -4.8617  -4.7800  -4.7684  -4.7294  -4.6690  -4.6144  -4.5776  -4.5706
    -4.5025  -4.4793  -4.4560  -4.4017  -4.3862  -4.2761  -4.2639  -4.2559
    -4.1688  -4.1264  -4.0768  -4.0420  -4.0022  -3.9107  -3.8933  -3.8677
    -3.7892  -3.7266  -3.6828  -3.6752  -3.6665  -3.6585  -3.6328  -3.4199
    -3.3701  -3.3570  -3.1598  -3.0872  -3.0813  -3.0410  -2.9372  -2.9365
    -2.9270  -2.8598  -2.8366  -2.8012  -2.7833  -2.7036  -2.6793  -2.6543
    -2.5328  -2.5115  -2.4300  -2.4134  -2.4057  -2.3836  -2.3208  -2.2514
    -2.2373  -2.1754  -2.1293  -2.0675  -2.0155  -1.9895  -1.9854  -1.9797
    -1.9755  -1.9514  -1.8514  -1.8087  -1.7882  -1.7382  -1.7021  -1.6677
    -1.6513  -1.6204  -1.6012  -1.5279  -1.5175  -1.4752  -1.4557  -1.4340
    -1.3915  -1.3405  -1.2888  -1.1877  -1.1473  -1.1271  -1.1024  -1.0835
    -0.8484  -0.8244  -0.6269  -0.6179  -0.6131  -0.6049  -0.5562  -0.5077
     1.4744   1.4770   1.6267   1.6273   1.7062   1.7071   2.0774   2.0782
     2.1410   2.1961   2.3667   2.4015   2.4380   2.4841   2.5318   2.5397
     2.6463   2.6582   2.6677   2.6814   2.7336   2.7433   2.8016   2.8043
     2.9041   2.9392   2.9828   3.0107   3.0156   3.0185   3.0252   3.0285
     3.0358   3.2167   3.2264   3.2567   3.2893   3.3318   3.3579   3.3880
     3.4254   3.4408   3.4950   3.6173   3.6883   3.7273   3.7418   3.7842
     3.8378   4.0283   4.3683   4.7487   4.8243   4.8579   4.8586   5.0452
     5.1363   5.2169   5.3068   5.3225   5.3568   5.3999   5.4605   5.5356
     5.5566   5.5889   5.5913   5.6788   5.6916   5.7106   5.7207   5.7339
     5.7609   5.8019   5.8345   5.9360   6.0190   6.1505   6.2899   6.3837
     6.4547   6.4710   6.5892   6.6101   6.9377   6.9874   7.4561   7.6180
     8.0350   8.2453   8.7201   8.9527   9.1409   9.2380   9.3416   9.3431
     9.4566   9.6078   9.6980

          k = 0.0253 0.0000 0.0000 ( 34707 PWs)   bands (ev):

   -58.3143 -58.2793 -57.3960 -57.3910 -57.3575 -57.3200 -57.2688 -57.1010
   -57.0731 -57.0678 -57.0291 -56.9305 -56.9034 -56.8953 -56.8086 -56.7702
   -34.7598 -34.5829 -34.5541 -34.5201 -34.4259 -34.3691 -33.8915 -33.8810
   -33.7614 -33.6800 -33.6457 -33.6032 -33.5741 -33.5642 -33.5601 -33.5515
   -33.5402 -33.5283 -33.4991 -33.4985 -33.4834 -33.4798 -33.4779 -33.4613
   -33.3498 -33.3446 -33.3385 -33.3370 -33.3228 -33.2970 -33.2912 -33.2724
   -33.2565 -33.2452 -33.2451 -33.2357 -33.2047 -33.1854 -33.1491 -33.1481
   -33.1090 -33.0866 -33.0592 -33.0407 -33.0224 -32.9975 -32.9576 -32.8898
   -18.4349 -18.0091 -17.8005 -17.7952 -17.5715 -17.4684 -17.4590 -17.3936
   -17.3724 -17.3313 -17.1168 -17.0487 -17.0230 -16.9890 -16.9363 -16.9023
   -16.8678 -16.8070 -16.7747 -16.7527 -16.6487 -16.6067 -16.5984 -16.5902
   -16.4744 -16.4538 -16.4099 -16.3958 -16.3338 -16.1540 -16.0946 -15.6088
   -15.5489 -11.1803  -5.9331  -5.4006  -5.2247  -5.2095  -5.0840  -5.0342
    -4.9789  -4.9090  -4.8869  -4.7438  -4.7082  -4.5935  -4.5899  -4.5222
    -4.4948  -4.4189  -4.3379  -4.2734  -4.2682  -4.2081  -4.2005  -4.1147
    -4.0397  -4.0071  -3.9999  -3.9254  -3.9097  -3.8681  -3.8586  -3.8070
    -3.7424  -3.6856  -3.6560  -3.6112  -3.5712  -3.5636  -3.5333  -3.5090
    -3.4533  -3.4237  -3.3290  -3.3253  -3.2838  -3.2676  -3.2471  -3.1617
    -3.0222  -2.9122  -2.8481  -2.8278  -2.7805  -2.7531  -2.7094  -2.6803
    -2.6213  -2.5683  -2.5502  -2.5093  -2.4463  -2.3915  -2.3428  -2.2758
    -2.2578  -2.2089  -2.1020  -2.0559  -2.0154  -1.9664  -1.8930  -1.8610
    -1.8372  -1.8086  -1.7227  -1.6358  -1.5886  -1.5809  -1.5555  -1.5202
    -1.4876  -1.4431  -1.4394  -1.4035  -1.3441  -1.3121  -1.3016  -1.2333
    -1.1968  -1.1659  -1.1154  -1.0968  -1.0525  -1.0344  -0.9663  -0.9219
    -0.8448  -0.8394  -0.6804  -0.6535  -0.6169  -0.5986  -0.5675  -0.2564
     1.0991   1.1137   1.4073   1.7742   1.8103   1.8954   1.9219   2.0409
     2.0767   2.1086   2.1951   2.2358   2.3293   2.3744   2.4328   2.4967
     2.5190   2.5878   2.6202   2.6391   2.6697   2.6950   2.8034   2.8177
     2.8382   2.8413   2.8826   2.8916   2.9364   3.0182   3.0668   3.1254
     3.1820   3.1940   3.2073   3.2092   3.2335   3.3012   3.3982   3.4350
     3.4801   3.5355   3.5843   3.6262   3.6908   3.7562   3.7769   3.9007
     4.0438   4.1828   4.2558   4.4171   4.5729   4.6156   4.8014   4.8196
     4.9523   4.9755   5.0786   5.1643   5.2988   5.3081   5.4202   5.5372
     5.5518   5.7009   5.7356   5.8967   5.9050   5.9300   5.9587   5.9825
     6.0154   6.0256   6.0617   6.1621   6.2213   6.2515   6.4320   6.4875
     6.5344   6.6199   6.7330   6.8031   7.2617   7.6806   7.7627   8.0222
     8.2193   8.2977   8.3818   8.6958   8.7525   8.9775   9.1097   9.2144
     9.4128   9.5045   9.7890

          k = 0.0253 0.0280 0.0000 ( 34687 PWs)   bands (ev):

   -58.3120 -58.2816 -57.3943 -57.3893 -57.3599 -57.3211 -57.2684 -57.1008
   -57.0733 -57.0660 -57.0311 -56.9282 -56.9036 -56.8976 -56.8061 -56.7727
   -34.7344 -34.5809 -34.5560 -34.5139 -34.4323 -34.3961 -33.8661 -33.8556
   -33.7405 -33.6740 -33.6396 -33.6007 -33.5748 -33.5605 -33.5572 -33.5475
   -33.5398 -33.5277 -33.5260 -33.5060 -33.4991 -33.4762 -33.4746 -33.4554
   -33.3447 -33.3343 -33.3249 -33.3245 -33.3146 -33.3134 -33.2887 -33.2706
   -33.2601 -33.2469 -33.2458 -33.2369 -33.2112 -33.2065 -33.1539 -33.1432
   -33.1215 -33.0832 -33.0654 -33.0387 -33.0234 -33.0023 -32.9849 -32.9184
   -18.3775 -17.9508 -17.7829 -17.7475 -17.5306 -17.5284 -17.4218 -17.3754
   -17.3587 -17.3273 -17.1213 -17.0782 -17.0063 -16.9752 -16.9260 -16.8850
   -16.8380 -16.8140 -16.8042 -16.7411 -16.6782 -16.6743 -16.6238 -16.5575
   -16.4959 -16.4736 -16.4189 -16.4145 -16.3655 -16.1727 -16.1367 -15.6230
   -15.5746 -11.1812  -5.8482  -5.3171  -5.1516  -5.1357  -5.0008  -4.9622
    -4.9254  -4.8996  -4.8272  -4.7054  -4.6844  -4.6433  -4.5411  -4.5056
    -4.4471  -4.4092  -4.3208  -4.3019  -4.2518  -4.2136  -4.1902  -4.1633
    -4.1345  -4.1028  -4.0401  -4.0041  -3.9618  -3.9492  -3.9067  -3.8293
    -3.7974  -3.7395  -3.7320  -3.6654  -3.6469  -3.6181  -3.5325  -3.4094
    -3.3528  -3.3312  -3.3217  -3.2747  -3.2438  -3.1994  -3.1249  -3.1039
    -2.9374  -2.9018  -2.8478  -2.7871  -2.7583  -2.7185  -2.6871  -2.6476
    -2.6185  -2.5314  -2.5082  -2.4789  -2.4599  -2.3917  -2.3382  -2.3136
    -2.2365  -2.1972  -2.1374  -2.0736  -2.0239  -1.9623  -1.9453  -1.9200
[...]
    -1.7379  -1.5141  -1.4721  -1.4616  -1.4438  -1.4062  -1.3272  -1.1637
    -1.1526  -1.0960  -1.0784  -1.0627  -0.9812  -0.9193  -0.8796  -0.7958
    -0.7422  -0.7353  -0.7071  -0.6788  -0.6026  -0.5821  -0.5675   0.2769
     1.5933   1.5968   1.6093   1.6147   1.9572   1.9580   2.0870   2.0879
     2.2702   2.2912   2.3045   2.3861   2.4092   2.4790   2.5662   2.6252
     2.6472   2.6918   2.7751   2.8086   2.8653   2.9172   2.9394   2.9673
     2.9819   2.9906   3.0317   3.0894   3.1034   3.2009   3.2267   3.2355
     3.2513   3.2752   3.3326   3.3787   3.3924   3.3976   3.4550   3.4655
     3.4756   3.5034   3.5182   3.5717   3.6288   3.6469   3.7681   3.8702
     3.9068   3.9161   4.1320   4.1325   4.5831   4.6115   4.6339   4.7192
     4.8739   4.8906   4.9232   5.0734   5.1526   5.1576   5.1765   5.4397
     5.6655   5.6745   5.6853   5.9181   5.9235   5.9574   6.0087   6.0115
     6.0864   6.0975   6.1678   6.2596   6.2627   6.2718   6.3747   6.4520
     6.4921   6.5983   7.0812   7.2450   7.3493   7.4094   7.5559   7.5918
     7.7227   7.7753   7.9281   8.1152   8.3000   8.3471   8.4571   8.8736
     9.0169   9.0713   9.2200

          k =-0.0253 0.0280 0.0000 ( 34687 PWs)   bands (ev):

   -58.3121 -58.2818 -57.3943 -57.3893 -57.3598 -57.3211 -57.2693 -57.1049
   -57.0746 -57.0673 -57.0324 -56.9297 -56.9289 -56.8984 -56.8097 -56.7764
   -34.7346 -34.5811 -34.5562 -34.5140 -34.4325 -34.3963 -33.8660 -33.8556
   -33.7414 -33.6740 -33.6396 -33.6009 -33.5748 -33.5606 -33.5572 -33.5482
   -33.5406 -33.5278 -33.5260 -33.5061 -33.5001 -33.4770 -33.4762 -33.4579
   -33.3456 -33.3360 -33.3292 -33.3256 -33.3189 -33.3148 -33.2902 -33.2712
   -33.2608 -33.2476 -33.2473 -33.2386 -33.2215 -33.2118 -33.1749 -33.1439
   -33.1413 -33.0866 -33.0661 -33.0465 -33.0276 -33.0056 -32.9857 -32.9211
   -18.3773 -17.9484 -17.7827 -17.7411 -17.5298 -17.5235 -17.3826 -17.3753
   -17.3521 -17.3225 -17.1188 -17.0759 -16.9912 -16.9461 -16.8800 -16.8371
   -16.7991 -16.7582 -16.7398 -16.6763 -16.6697 -16.5905 -16.5505 -16.4922
   -16.4681 -16.4121 -16.3736 -16.3555 -16.1619 -16.1269 -15.8702 -15.6193
   -15.5707 -10.7923  -5.8481  -5.3169  -5.1507  -5.1328  -5.0006  -4.9599
    -4.9207  -4.8326  -4.7054  -4.6847  -4.6435  -4.5433  -4.5053  -4.4489
    -4.4150  -4.3206  -4.2973  -4.2561  -4.2061  -4.1881  -4.1485  -4.1340
    -4.0999  -4.0497  -4.0105  -3.9951  -3.9614  -3.9202  -3.8791  -3.8066
    -3.7914  -3.7312  -3.6862  -3.6306  -3.5972  -3.5634  -3.4995  -3.3985
    -3.3503  -3.3276  -3.2959  -3.2701  -3.2310  -3.1892  -3.1196  -3.1033
    -2.9269  -2.8893  -2.8294  -2.7848  -2.7289  -2.6924  -2.6816  -2.6246
    -2.5947  -2.5161  -2.5067  -2.4496  -2.4166  -2.3658  -2.2954  -2.2729
    -2.2210  -2.1993  -2.1115  -2.0500  -1.9662  -1.9478  -1.9233  -1.8579
    -1.8466  -1.7987  -1.7532  -1.6923  -1.6436  -1.6026  -1.5698  -1.5181
    -1.4841  -1.4430  -1.4139  -1.3880  -1.3685  -1.3535  -1.3219  -1.2982
    -1.2128  -1.1315  -1.0683  -1.0181  -0.9952  -0.9610  -0.9368  -0.8920
    -0.8504  -0.8280  -0.6389  -0.6174  -0.5929  -0.5298  -0.2732   0.3000
     1.1452   1.2388   1.4228   1.8121   1.8516   1.9187   1.9551   2.0224
     2.0334   2.1825   2.2933   2.3391   2.3807   2.4233   2.4470   2.4971
     2.5173   2.5415   2.5824   2.6428   2.6909   2.7153   2.7711   2.8249
     2.8699   2.9069   2.9235   2.9665   2.9840   3.0076   3.0339   3.0865
     3.1637   3.1843   3.2267   3.2523   3.2876   3.3306   3.4229   3.4580
     3.4881   3.5521   3.6052   3.6362   3.6570   3.7373   3.8168   3.8588
     4.0059   4.2021   4.2781   4.4291   4.6179   4.7163   4.8372   4.8543
     4.9952   5.0190   5.1056   5.1918   5.2356   5.3521   5.4541   5.5419
     5.6654   5.6884   5.7149   5.7964   5.8435   5.8762   5.9026   5.9245
     5.9604   5.9829   6.0592   6.1266   6.1680   6.2767   6.3913   6.4420
     6.4554   6.5776   6.7506   6.8068   7.3796   7.4790   7.8016   7.8957
     8.0980   8.2389   8.4872   8.5359   8.7916   8.8973   9.0864   9.3077
     9.3788   9.5332   9.6184

          k =-0.0253 0.0560 0.0000 ( 34699 PWs)   bands (ev):

   -58.3058 -58.2882 -57.3911 -57.3839 -57.3662 -57.3234 -57.2685 -57.1045
   -57.0751 -57.0626 -57.0373 -56.9302 -56.9225 -56.9049 -56.8030 -56.7831
   -34.6646 -34.5758 -34.5614 -34.4970 -34.4694 -34.4499 -33.7963 -33.7864
   -33.6906 -33.6587 -33.6228 -33.5993 -33.5953 -33.5944 -33.5830 -33.5761
   -33.5498 -33.5403 -33.5265 -33.5051 -33.4917 -33.4748 -33.4637 -33.4240
   -33.3804 -33.3334 -33.3297 -33.3221 -33.2921 -33.2826 -33.2663 -33.2661
   -33.2650 -33.2559 -33.2525 -33.2394 -33.2284 -33.2232 -33.1904 -33.1701
   -33.1276 -33.0836 -33.0828 -33.0596 -33.0435 -33.0300 -33.0177 -32.9917
   -18.2195 -17.8096 -17.7881 -17.6196 -17.6078 -17.4638 -17.4012 -17.3775
   -17.2567 -17.2495 -17.2119 -17.0658 -16.9562 -16.9273 -16.8891 -16.8485
   -16.8057 -16.7516 -16.7409 -16.7256 -16.6912 -16.6065 -16.5558 -16.5389
   -16.5078 -16.4495 -16.4190 -16.4150 -16.2234 -16.2082 -15.8689 -15.6481
   -15.6245 -10.7942  -5.6129  -5.0895  -5.0318  -4.9638  -4.9317  -4.8249
    -4.8029  -4.7658  -4.6955  -4.6816  -4.5338  -4.5171  -4.4540  -4.4031
    -4.3853  -4.3771  -4.3285  -4.2847  -4.2579  -4.2479  -4.2115  -4.1801
    -4.1397  -4.1286  -4.0596  -4.0235  -3.9996  -3.9569  -3.9325  -3.8970
    -3.8363  -3.7974  -3.6879  -3.5968  -3.5668  -3.5371  -3.4633  -3.3922
    -3.3717  -3.2983  -3.1955  -3.1677  -3.1258  -3.1185  -3.0665  -3.0319
    -2.9901  -2.9343  -2.8506  -2.8008  -2.7697  -2.7123  -2.6168  -2.5970
    -2.5318  -2.5175  -2.4640  -2.3989  -2.3836  -2.3256  -2.3079  -2.2666
    -2.1964  -2.1430  -2.1288  -2.0965  -2.0562  -2.0145  -1.9930  -1.9560
    -1.9386  -1.9134  -1.9008  -1.8537  -1.7755  -1.7103  -1.6974  -1.6016
    -1.5805  -1.5519  -1.5259  -1.4926  -1.4497  -1.4212  -1.3922  -1.3326
    -1.2976  -1.2302  -1.1622  -1.0416  -1.0111  -0.9771  -0.9450  -0.8650
    -0.7702  -0.7431  -0.7126  -0.6478  -0.6170  -0.5634  -0.3705   0.2815
     1.2795   1.4615   1.5567   1.7507   1.7661   1.9044   1.9713   2.0505
     2.2579   2.2683   2.3348   2.3711   2.4076   2.4798   2.5150   2.5404
     2.5653   2.5887   2.6460   2.6987   2.7135   2.7572   2.7997   2.8494
     2.8752   2.9101   2.9542   2.9997   3.0254   3.0388   3.0488   3.1022
     3.1518   3.1915   3.2107   3.2813   3.3103   3.3388   3.3708   3.4504
     3.5021   3.5276   3.6056   3.6275   3.6633   3.7204   3.7395   3.7930
     3.8886   4.0924   4.3853   4.4936   4.7086   4.8516   4.9028   4.9541
     4.9882   5.0826   5.1796   5.2008   5.3300   5.3813   5.4266   5.5214
     5.5573   5.5924   5.6449   5.7023   5.7316   5.7966   5.8129   5.8535
     5.9204   5.9373   6.0055   6.0828   6.1258   6.2063   6.3228   6.4265
     6.4563   6.4727   6.7141   6.7635   7.0795   7.3054   7.6755   7.8344
     8.1080   8.2377   8.3256   8.4943   8.7817   8.9026   9.0026   9.1944
     9.3760   9.5552   9.6528

          k =-0.0506 0.0280 0.0000 ( 34685 PWs)   bands (ev):

   -58.3121 -58.2818 -57.3934 -57.3901 -57.3598 -57.3212 -57.2693 -57.1049
   -57.0742 -57.0676 -57.0324 -56.9296 -56.9290 -56.8984 -56.8098 -56.7764
   -34.7353 -34.5811 -34.5562 -34.5125 -34.4325 -34.3963 -33.8665 -33.8597
   -33.7416 -33.6544 -33.6394 -33.6010 -33.5799 -33.5625 -33.5612 -33.5535
   -33.5409 -33.5352 -33.5248 -33.5060 -33.5002 -33.4776 -33.4645 -33.4590
   -33.3457 -33.3294 -33.3277 -33.3255 -33.3154 -33.3143 -33.2903 -33.2732
   -33.2708 -33.2474 -33.2466 -33.2414 -33.2217 -33.2113 -33.1710 -33.1439
   -33.1415 -33.0867 -33.0661 -33.0534 -33.0259 -33.0056 -32.9857 -32.9212
   -18.2689 -17.8708 -17.8588 -17.7081 -17.5947 -17.4624 -17.4449 -17.3512
   -17.3243 -17.2581 -17.1873 -17.0935 -17.0038 -16.9586 -16.9298 -16.9022
   -16.8184 -16.7744 -16.7633 -16.7033 -16.6402 -16.5566 -16.5303 -16.4962
   -16.4682 -16.4130 -16.3979 -16.3600 -16.1584 -16.1274 -15.8709 -15.6175
   -15.5708 -10.7921  -5.5468  -5.1942  -5.1609  -5.1282  -4.9563  -4.8765
    -4.7747  -4.7168  -4.6897  -4.6592  -4.6084  -4.5945  -4.5404  -4.4145
    -4.3694  -4.3303  -4.2482  -4.2224  -4.1858  -4.1714  -4.1552  -4.0630
    -4.0288  -4.0153  -3.9801  -3.9314  -3.8914  -3.8458  -3.8194  -3.7807
    -3.7288  -3.6765  -3.6385  -3.5938  -3.5611  -3.5400  -3.4924  -3.4603
    -3.3860  -3.3733  -3.3070  -3.2723  -3.2111  -3.1559  -3.1255  -3.0652
    -3.0169  -2.9877  -2.9087  -2.8429  -2.7647  -2.7059  -2.6964  -2.6734
    -2.6239  -2.6010  -2.5881  -2.5330  -2.5240  -2.4001  -2.3487  -2.3398
    -2.2773  -2.2079  -2.1929  -2.1662  -2.0878  -2.0176  -2.0114  -1.9498
    -1.9314  -1.9017  -1.8178  -1.7293  -1.7162  -1.6919  -1.6222  -1.5941
    -1.5309  -1.4838  -1.4611  -1.4004  -1.3862  -1.3336  -1.3185  -1.2681
    -1.2516  -1.1282  -1.0652  -1.0418  -1.0182  -0.9640  -0.9307  -0.8833
    -0.8356  -0.8039  -0.7280  -0.6890  -0.6677  -0.5438  -0.3990   0.2844
     1.1321   1.3321   1.4572   1.5580   1.9259   1.9359   1.9584   2.0502
     2.1162   2.1910   2.2458   2.3217   2.3980   2.4318   2.5206   2.5381
     2.5846   2.6425   2.6794   2.6933   2.7469   2.8205   2.8434   2.8738
     2.9324   2.9384   2.9717   2.9767   2.9832   3.0941   3.1011   3.1298
     3.1775   3.2066   3.2825   3.3028   3.3478   3.3752   3.3986   3.4470
     3.4617   3.5401   3.5944   3.6594   3.7348   3.7714   3.7912   3.8934
     3.9521   4.0538   4.1013   4.3995   4.5023   4.6480   4.7396   4.8014
     4.8339   4.9061   4.9583   5.2816   5.3223   5.4063   5.5200   5.5517
     5.6330   5.7588   5.7788   5.8457   5.8922   5.9052   5.9732   6.0513
     6.0859   6.1585   6.2424   6.3273   6.3794   6.4019   6.4364   6.4824
     6.5335   6.5444   6.7054   6.9220   7.0844   7.2220   7.5444   7.6148
     7.7293   8.2260   8.4150   8.4938   8.8651   8.9436   9.0695   9.2266
     9.4308   9.6075   9.6759

          k =-0.0506 0.0560 0.0000 ( 34596 PWs)   bands (ev):

   -58.3058 -58.2882 -57.3907 -57.3843 -57.3662 -57.3234 -57.2685 -57.1045
   -57.0749 -57.0627 -57.0373 -56.9301 -56.9225 -56.9049 -56.8030 -56.7831
   -34.6652 -34.5758 -34.5614 -34.4957 -34.4696 -34.4495 -33.7965 -33.7910
   -33.6908 -33.6429 -33.6227 -33.5985 -33.5969 -33.5942 -33.5773 -33.5761
   -33.5531 -33.5404 -33.5387 -33.5053 -33.5009 -33.4749 -33.4521 -33.4256
   -33.3808 -33.3333 -33.3196 -33.3162 -33.2947 -33.2847 -33.2675 -33.2659
   -33.2648 -33.2558 -33.2521 -33.2493 -33.2292 -33.2235 -33.1897 -33.1659
   -33.1276 -33.0837 -33.0827 -33.0595 -33.0477 -33.0306 -33.0177 -32.9916
   -18.1164 -17.8274 -17.7103 -17.6221 -17.6058 -17.5662 -17.3891 -17.3775
   -17.2275 -17.2151 -17.1263 -17.1039 -16.9863 -16.9208 -16.8762 -16.8510
   -16.8323 -16.8169 -16.7703 -16.7447 -16.7295 -16.6368 -16.6054 -16.5150
   -16.5048 -16.4472 -16.4298 -16.4193 -16.2228 -16.2047 -15.8689 -15.6468
   -15.6249 -10.7940  -5.3103  -5.0004  -4.9498  -4.9419  -4.7918  -4.7841
    -4.7252  -4.6481  -4.5352  -4.5152  -4.5094  -4.4265  -4.4124  -4.3895
    -4.3697  -4.3361  -4.3177  -4.2560  -4.2086  -4.1847  -4.1737  -4.1206
    -4.1104  -4.0600  -4.0526  -3.9993  -3.9861  -3.9094  -3.8867  -3.8337
    -3.7883  -3.7110  -3.6720  -3.6204  -3.5869  -3.5582  -3.5040  -3.4411
    -3.4035  -3.3285  -3.2694  -3.2396  -3.1419  -3.1359  -3.0881  -3.0605
    -3.0037  -2.9861  -2.9664  -2.9110  -2.8088  -2.7721  -2.7576  -2.7144
    -2.6382  -2.5956  -2.5542  -2.5104  -2.4869  -2.4228  -2.3980  -2.3780
    -2.3597  -2.2985  -2.2038  -2.1806  -2.1558  -2.1374  -2.1107  -2.0566
    -2.0213  -1.9797  -1.9523  -1.8783  -1.8565  -1.7904  -1.7397  -1.6649
    -1.5746  -1.5574  -1.5465  -1.5042  -1.4506  -1.3931  -1.3612  -1.3148
    -1.2531  -1.1839  -1.0856  -1.0298  -0.9966  -0.9113  -0.8606  -0.8531
    -0.8024  -0.7149  -0.6997  -0.6791  -0.6642  -0.5616  -0.4843   0.2839
     1.3001   1.4898   1.6384   1.6602   1.8449   1.9960   2.0246   2.0596
     2.2355   2.2481   2.3524   2.3685   2.4248   2.4536   2.5402   2.5773
     2.6426   2.6878   2.7217   2.7363   2.8035   2.8346   2.8630   2.8956
     2.9259   2.9430   2.9986   3.0340   3.0644   3.1054   3.1371   3.1828
     3.1878   3.2430   3.2768   3.3169   3.3262   3.3690   3.4089   3.4592
     3.4745   3.5413   3.5710   3.6333   3.6601   3.7379   3.7975   3.8328
     3.8763   3.9525   4.1447   4.4962   4.5886   4.6083   4.7465   4.8139
     4.8808   4.9572   5.0026   5.1788   5.2942   5.3681   5.4043   5.4369
     5.5872   5.6098   5.6602   5.7093   5.8719   5.8890   5.9795   5.9988
     6.0611   6.1009   6.1636   6.2026   6.3130   6.3312   6.4099   6.4164
     6.5339   6.6091   6.7661   6.8018   7.1935   7.3647   7.5158   7.6250
     7.9405   8.0197   8.1073   8.3892   8.6097   8.7237   8.8102   9.0435
     9.1985   9.3291   9.4371

     the Fermi energy is    -0.2994 ev

!    total energy              =   -3021.14978985 Ry
     Harris-Foulkes estimate   =   -3021.14979002 Ry
     estimated scf accuracy    <       0.00000068 Ry

     The total energy is the sum of the following terms:

     one-electron contribution =  -40438.21114343 Ry
     hartree contribution      =   20290.33288871 Ry
     xc contribution           =    -553.21314377 Ry
     ewald contribution        =   17679.96144157 Ry
     smearing contrib. (-TS)   =      -0.01983292 Ry

     total magnetization       =     1.06 Bohr mag/cell
     absolute magnetization    =     1.23 Bohr mag/cell

     convergence has been achieved in  10 iterations

     Forces acting on atoms (Ry/au):


     negative rho (up, down):  1.189E-02 1.196E-02
     atom    1 type  1   force =     0.00018375   -0.00089979   -0.10469818
     atom    2 type  2   force =     0.00014373    0.00068074    0.04004005
     atom    3 type  1   force =     0.00074646   -0.00175269   -0.02053724
     atom    4 type  2   force =    -0.00326110    0.00312295   -0.00323256
     atom    5 type  1   force =     0.00034297    0.00010488    0.00029040
     atom    6 type  2   force =    -0.00013483   -0.00010805    0.00019422
     atom    7 type  1   force =    -0.00037710    0.00005780   -0.00055406
     atom    8 type  2   force =    -0.00008758    0.00000536   -0.00005749
     atom    9 type  1   force =    -0.00003503    0.00056449   -0.10483140
     atom   10 type  2   force =     0.00034781   -0.00021373    0.03601084
     atom   11 type  1   force =     0.00067813    0.00183623    0.00261855
     atom   12 type  2   force =    -0.00518859   -0.00267006   -0.00519726
     atom   13 type  1   force =     0.00041354    0.00005556   -0.00028439
     atom   14 type  2   force =     0.00013003   -0.00007403    0.00000412
     atom   15 type  1   force =    -0.00009351   -0.00012531    0.00014019
     atom   16 type  2   force =    -0.00022663    0.00007374   -0.00043433
     atom   17 type  2   force =     0.00000783   -0.00001402    0.06662474
     atom   18 type  1   force =     0.00005635    0.00002999    0.13143623
     atom   19 type  2   force =     0.00017567   -0.00052980   -0.08520344
     atom   20 type  2   force =    -0.05793289    0.00014188   -0.03607089
     atom   21 type  2   force =     0.05782203   -0.00004937   -0.03603089
     atom   22 type  1   force =    -0.00042971    0.00074930    0.08017412
     atom   23 type  2   force =     0.00019618   -0.00004744    0.00004112
     atom   24 type  2   force =     0.00064216    0.00185798   -0.03469584
     atom   25 type  2   force =     0.00413103    0.00332512   -0.00510270
     atom   26 type  1   force =     0.00040705   -0.00005112    0.00008829
     atom   27 type  2   force =    -0.00009268   -0.00012972    0.00000428
     atom   28 type  2   force =     0.00005676   -0.00020084   -0.00003607
     atom   29 type  2   force =    -0.00000107   -0.00007708    0.00005504
     atom   30 type  1   force =    -0.00036570   -0.00020557    0.00023055
     atom   31 type  2   force =     0.00011073   -0.00009331   -0.00011082
     atom   32 type  2   force =    -0.00008898   -0.00007497    0.00000308
     atom   33 type  2   force =    -0.00016681    0.00004817    0.06635877
     atom   34 type  1   force =     0.00007689   -0.00003516    0.13121758
     atom   35 type  2   force =     0.00018698   -0.00013005   -0.08481162
     atom   36 type  2   force =    -0.05782815    0.00006342   -0.03568276
     atom   37 type  2   force =     0.05799574   -0.00017651   -0.03608093
     atom   38 type  1   force =    -0.00037804   -0.00020551    0.07984261
     atom   39 type  2   force =     0.00007417   -0.00027395   -0.00008701
     atom   40 type  2   force =     0.00049020    0.00123951   -0.03529830
     atom   41 type  2   force =     0.00587993   -0.00243550   -0.00722647
     atom   42 type  1   force =     0.00024156   -0.00006929    0.00000822
     atom   43 type  2   force =    -0.00019546   -0.00009125    0.00001522
     atom   44 type  2   force =     0.00000917   -0.00015765   -0.00004640
     atom   45 type  2   force =     0.00000303   -0.00016460    0.00004023
     atom   46 type  1   force =     0.00004702   -0.00005051    0.00016363
     atom   47 type  2   force =    -0.00000612   -0.00012681   -0.00008559
     atom   48 type  2   force =    -0.00015532   -0.00013056    0.00040658
     atom   49 type  2   force =    -0.00081487   -0.00204839   -0.00119940
     atom   50 type  3   force =     0.00263093    0.00141282    0.00142093
     atom   51 type  4   force =    -0.00042368    0.00061725    0.00069137
     atom   52 type  4   force =    -0.00006232    0.00120085    0.00137863
     atom   53 type  4   force =    -0.00510018   -0.00227231   -0.00095850
     atom   54 type  4   force =    -0.00078150   -0.00150312   -0.00094503

     Total force =     0.342371     Total SCF correction =     0.002528
 !ASE

     Writing output data file calc.save
 
     init_run     :     66.13s CPU     79.93s WALL (       1 calls)
     electrons    :   2748.47s CPU   3170.20s WALL (       1 calls)
     forces       :     49.47s CPU     50.78s WALL (       1 calls)

     Called by init_run:
     wfcinit      :     58.16s CPU     71.21s WALL (       1 calls)
     potinit      :      1.38s CPU      1.64s WALL (       1 calls)

     Called by electrons:
     c_bands      :   2407.94s CPU   2769.42s WALL (      11 calls)
     sum_band     :    295.93s CPU    350.63s WALL (      11 calls)
     v_of_rho     :     11.21s CPU     13.77s WALL (      11 calls)
     newd         :     37.00s CPU     40.20s WALL (      11 calls)
     mix_rho      :      0.37s CPU      0.50s WALL (      11 calls)
     vdW_energy   :      2.44s CPU      2.84s WALL (      12 calls)
     vdW_ffts     :      3.08s CPU      3.81s WALL (      24 calls)
     vdW_v        :      1.13s CPU      1.27s WALL (      12 calls)

     Called by c_bands:
     init_us_2    :      6.76s CPU      7.44s WALL (     960 calls)
     cegterg      :   2365.36s CPU   2723.34s WALL (     440 calls)

     Called by *egterg:
     h_psi        :    948.31s CPU   1233.82s WALL (    1922 calls)
     s_psi        :    162.88s CPU    167.23s WALL (    1922 calls)
     g_psi        :      4.78s CPU      4.82s WALL (    1442 calls)
     cdiaghg      :    711.96s CPU    724.54s WALL (    1842 calls)

     Called by h_psi:
     add_vuspsi   :    164.68s CPU    168.78s WALL (    1922 calls)

     General routines
     calbec       :    242.67s CPU    246.81s WALL (    2402 calls)
     fft          :      6.24s CPU      7.86s WALL (     956 calls)
     ffts         :      0.04s CPU      0.06s WALL (      44 calls)
     fftw         :    530.11s CPU    854.26s WALL (  778654 calls)
     interpolate  :      0.33s CPU      0.49s WALL (      44 calls)
     davcio       :      0.00s CPU      0.73s WALL (      40 calls)
 
     Parallel routines
     fft_scatter  :    267.30s CPU    447.01s WALL (  779654 calls)
 
     PWSCF        : 47m46.77s CPU    55m 4.94s WALL

 
   This run was terminated on:  19:41:53  26Feb2018            

=------------------------------------------------------------------------------=
   JOB DONE.
=------------------------------------------------------------------------------=
