  python dir          : /home/vossj/suncat/lib/python2.7/site-packages/espresso
  espresso dir        : /home/vossj/suncat/esdld/espresso-dynpy-beef/bin
  pseudo dir          : /home/alatimer/bin/psp/esp_psp_w_gbrvRu/
  ase-espresso py git : ffa2778-git



     Program PWSCF v.5.1rc2 (svn rev. ) starts on 26Feb2018 at 11:13:14 

     This program is part of the open-source Quantum ESPRESSO suite
     for quantum simulation of materials; please cite
         "P. Giannozzi et al., J. Phys.:Condens. Matter 21 395502 (2009);
          URL http://www.quantum-espresso.org", 
     in publications or presentations arising from this work. More details at
     http://www.quantum-espresso.org/quote

     Parallel version (MPI), running on    16 processors
     R & G space division:  proc/nbgrp/npool/nimage =      16
     Reading input from pw.inp
     Message from routine read_cards :
     DEPRECATED: no units specified in CELL_PARAMETERS card

     Current dimensions of program PWSCF are:
     Max number of different atomic species (ntypx) = 10
     Max number of k-points (npk) =  40000
     Max angular momentum in pseudopotentials (lmaxx) =  3

     **************************************************************************
     Initializing libbeef V0.1.1 with the BEEF-vdW functional.
     Citation: Wellendorff et al., PRB 85, 235149 (2012).
     **************************************************************************


     IMPORTANT: XC functional enforced from input :
     Exchange-correlation      = BEEF ( 1  4 27 13 2)
     Any further DFT definition will be discarded
     Please, verify this is what you really want


     Subspace diagonalization in iterative solution of the eigenvalue problem:
     a serial algorithm will be used

 
     Parallelization info
     --------------------
     sticks:   dense  smooth     PW     G-vecs:    dense   smooth      PW
     Min         281     112     31                68535    17318    2565
     Max         282     113     32                68545    17369    2582
     Sum        4501    1795    503              1096637   277353   41113
 
     Generating pointlists ...
     new r_m :   0.4125 (alat units)  0.7795 (a.u.) for type    1
     new r_m :   0.4125 (alat units)  0.7795 (a.u.) for type    2
     new r_m :   0.4125 (alat units)  0.7795 (a.u.) for type    3
     new r_m :   0.4125 (alat units)  0.7795 (a.u.) for type    4


     bravais-lattice index     =            0
     lattice parameter (alat)  =       1.8897  a.u.
     unit-cell volume          =    7990.9933 (a.u.)^3
     number of atoms/cell      =           54
     number of atomic types    =            4
     number of electrons       =       398.00
     number of Kohn-Sham states=          299
     kinetic-energy cutoff     =      40.4243  Ry
     charge density cutoff     =     404.2426  Ry
     convergence threshold     =      7.3E-07
     mixing beta               =       0.1000
     number of iterations used =           10  plain     mixing
     Exchange-correlation      = BEEF ( 1  4 27 13 2)
     nstep                     =           50


     celldm(1)=   1.889726  celldm(2)=   0.000000  celldm(3)=   0.000000
     celldm(4)=   0.000000  celldm(5)=   0.000000  celldm(6)=   0.000000

     crystal axes: (cart. coord. in units of alat)
               a(1) = (   6.590708   0.000000   0.000000 )  
               a(2) = (   0.000000   5.950229   0.000000 )  
               a(3) = (   0.000000   0.000000  30.195235 )  

     reciprocal axes: (cart. coord. in units 2 pi/alat)
               b(1) = (  0.151729  0.000000  0.000000 )  
               b(2) = (  0.000000  0.168061  0.000000 )  
               b(3) = (  0.000000  0.000000  0.033118 )  


     PseudoPot. # 1 for Ti read from file:
     /home/alatimer/bin/psp/esp_psp_w_gbrvRu/Ti.UPF
     MD5 check sum: 8e4df49b7f0d34bbd5052bf3f5ea0213
     Pseudo is Ultrasoft, Zval = 12.0
     Generated by new atomic code, or converted to UPF format
     Using radial grid of  851 points,  6 beta functions with: 
                l(1) =   0
                l(2) =   0
                l(3) =   1
                l(4) =   1
                l(5) =   2
                l(6) =   2
     Q(r) pseudized with  8 coefficients,  rinner =    1.000   1.000   1.000
                                                       1.000   1.000

     PseudoPot. # 2 for  O read from file:
     /home/alatimer/bin/psp/esp_psp_w_gbrvRu/O.UPF
     MD5 check sum: e057bbcf3229fb5d8c36c0c92f9568b4
     Pseudo is Ultrasoft + core correction, Zval =  6.0
     Generated using "atomic" code by A. Dal Corso  v.5.0.2 svn rev. 9415
     Using radial grid of 1095 points,  4 beta functions with: 
                l(1) =   0
                l(2) =   0
                l(3) =   1
                l(4) =   1
     Q(r) pseudized with 0 coefficients 


     PseudoPot. # 3 for  C read from file:
     /home/alatimer/bin/psp/esp_psp_w_gbrvRu/C.UPF
     MD5 check sum: ab446d787031eba755f1d5ee46644bb0
     Pseudo is Ultrasoft + core correction, Zval =  4.0
     Generated using "atomic" code by A. Dal Corso  v.5.0.2 svn rev. 9415
     Using radial grid of 1073 points,  4 beta functions with: 
                l(1) =   0
                l(2) =   0
                l(3) =   1
                l(4) =   1
     Q(r) pseudized with 0 coefficients 


     PseudoPot. # 4 for  H read from file:
     /home/alatimer/bin/psp/esp_psp_w_gbrvRu/H.UPF
     MD5 check sum: bd57da0722753ddfd9833a65b40bb853
     Pseudo is Ultrasoft, Zval =  1.0
     Generated using "atomic" code by A. Dal Corso  v.5.0.2 svn rev. 9415
     Using radial grid of  929 points,  2 beta functions with: 
                l(1) =   0
                l(2) =   0
     Q(r) pseudized with 0 coefficients 


     vdW kernel table read from file vdW_kernel_table
     MD5 check sum: 095c7af220d748ca6e76c0b4c6cfb241

     atomic species   valence    mass     pseudopotential
        Ti1           12.00    47.88000     Ti( 1.00)
        O1             6.00    15.99940      O( 1.00)
        C1             4.00    12.01100      C( 1.00)
        H1             1.00     1.00794      H( 1.00)

     Starting magnetic structure 
     atomic species   magnetization
        Ti1          0.250
        O1           0.500
        C1           0.750
        H1           0.000

     No symmetry found



   Cartesian axes

     site n.     atom                  positions (alat units)
         1           Ti1 tau(   1) = (   1.6476770   0.7437786   2.6545865  )
         2           O1  tau(   2) = (   1.6476770   2.2313359   3.9361215  )
         3           Ti1 tau(   3) = (   1.6476770   2.2313359   5.9499405  )
         4           O1  tau(   4) = (   0.3661420   0.7437786   5.9499405  )
         5           Ti1 tau(   5) = (   1.6407309   0.9134410   9.3139491  )
         6           O1  tau(   6) = (   1.6648823   2.2608486  10.4895904  )
         7           Ti1 tau(   7) = (   1.7578240   2.2899216  13.0472362  )
         8           O1  tau(   8) = (   0.4801583   0.7600008  12.7739736  )
         9           Ti1 tau(   9) = (   1.6476770   3.7188931   2.6545865  )
        10           O1  tau(  10) = (   1.6476770   5.2064503   3.9361215  )
        11           Ti1 tau(  11) = (   1.6476770   5.2064503   5.9499405  )
        12           O1  tau(  12) = (   0.3661420   3.7188931   5.9499405  )
        13           Ti1 tau(  13) = (   1.6336050   3.7786827   9.1566831  )
        14           O1  tau(  14) = (   1.6678212   5.2513959  10.5409436  )
        15           Ti1 tau(  15) = (   1.7144009   5.2558216  12.3462911  )
        16           O1  tau(  16) = (   0.4635505   3.7986228  12.7318280  )
        17           O1  tau(  17) = (   1.6476770   2.2313359   1.3730516  )
        18           Ti1 tau(  18) = (   4.9430310   2.2313359   2.6545865  )
        19           O1  tau(  19) = (   4.9430310   2.2313359   4.6684056  )
        20           O1  tau(  20) = (   6.2245660   0.7437786   2.6545865  )
        21           O1  tau(  21) = (   3.6614961   0.7437786   2.6545865  )
        22           Ti1 tau(  22) = (   4.9430310   0.7437786   5.9499405  )
        23           O1  tau(  23) = (   1.6683653   2.2752577   7.9427336  )
        24           O1  tau(  24) = (   4.9430310   2.2313359   7.2314755  )
        25           O1  tau(  25) = (   2.9292120   0.7437786   5.9499405  )
        26           Ti1 tau(  26) = (   4.9404121   2.2664794   9.4552217  )
        27           O1  tau(  27) = (   5.0099888   2.2616732  11.2946145  )
        28           O1  tau(  28) = (   6.2612001   0.7714827   9.2659748  )
        29           O1  tau(  29) = (   3.6791272   0.7744986   9.2965846  )
        30           Ti1 tau(  30) = (   5.0117873   0.7976728  12.8161605  )
        31           O1  tau(  31) = (   4.9963122   2.2836652  13.8750618  )
        32           O1  tau(  32) = (   2.9819382   0.7448324  12.7109220  )
        33           O1  tau(  33) = (   1.6476770   5.2064503   1.3730516  )
        34           Ti1 tau(  34) = (   4.9430310   5.2064503   2.6545865  )
        35           O1  tau(  35) = (   4.9430310   5.2064503   4.6684056  )
        36           O1  tau(  36) = (   6.2245660   3.7188931   2.6545865  )
        37           O1  tau(  37) = (   3.6614961   3.7188931   2.6545865  )
        38           Ti1 tau(  38) = (   4.9430310   3.7188931   5.9499405  )
        39           O1  tau(  39) = (   1.6664207   5.2035600   7.9365221  )
        40           O1  tau(  40) = (   4.9430310   5.2064503   7.2314755  )
        41           O1  tau(  41) = (   2.9292120   3.7188931   5.9499405  )
        42           Ti1 tau(  42) = (   4.9524353   5.2460635   9.4426343  )
        43           O1  tau(  43) = (   5.0107556   5.2394944  11.2927493  )
        44           O1  tau(  44) = (   6.2663940   3.7551737   9.2646230  )
        45           O1  tau(  45) = (   3.6780957   3.7542261   9.2971476  )
        46           Ti1 tau(  46) = (   5.0587989   3.7766986  12.8010349  )
        47           O1  tau(  47) = (   5.0196089   5.2502198  13.8813978  )
        48           O1  tau(  48) = (   2.9624133   3.7943242  12.7299881  )
        49           O1  tau(  49) = (   1.7427453   2.2533568  14.8370015  )
        50           C1  tau(  50) = (   2.7196098   4.2826273  16.2318421  )
        51           H1  tau(  51) = (   3.3037454   4.9255546  15.6127400  )
        52           H1  tau(  52) = (   3.3286606   3.7870117  16.9822022  )
        53           H1  tau(  53) = (   2.3125587   3.4026405  15.5729816  )
        54           H1  tau(  54) = (   1.8391288   4.7650601  16.6448379  )

     number of k points=    40  Fermi-Dirac smearing, width (Ry)=  0.0073
                       cart. coord. in units 2pi/alat
        k(    1) = (   0.0000000   0.0000000   0.0000000), wk =   0.0277778
        k(    2) = (   0.0000000   0.0280101   0.0000000), wk =   0.0555556
        k(    3) = (   0.0000000   0.0560203   0.0000000), wk =   0.0555556
        k(    4) = (   0.0000000  -0.0840304   0.0000000), wk =   0.0277778
        k(    5) = (   0.0252881   0.0000000   0.0000000), wk =   0.0555556
        k(    6) = (   0.0252881   0.0280101   0.0000000), wk =   0.0555556
        k(    7) = (   0.0252881   0.0560203   0.0000000), wk =   0.0555556
        k(    8) = (   0.0252881  -0.0840304   0.0000000), wk =   0.0555556
        k(    9) = (   0.0505763   0.0000000   0.0000000), wk =   0.0555556
        k(   10) = (   0.0505763   0.0280101   0.0000000), wk =   0.0555556
        k(   11) = (   0.0505763   0.0560203   0.0000000), wk =   0.0555556
        k(   12) = (   0.0505763  -0.0840304   0.0000000), wk =   0.0555556
        k(   13) = (  -0.0758644   0.0000000   0.0000000), wk =   0.0277778
        k(   14) = (  -0.0758644   0.0280101   0.0000000), wk =   0.0555556
        k(   15) = (  -0.0758644   0.0560203   0.0000000), wk =   0.0555556
        k(   16) = (  -0.0758644  -0.0840304   0.0000000), wk =   0.0277778
        k(   17) = (  -0.0252881   0.0280101   0.0000000), wk =   0.0555556
        k(   18) = (  -0.0252881   0.0560203   0.0000000), wk =   0.0555556
        k(   19) = (  -0.0505763   0.0280101   0.0000000), wk =   0.0555556
        k(   20) = (  -0.0505763   0.0560203   0.0000000), wk =   0.0555556
        k(   21) = (   0.0000000   0.0000000   0.0000000), wk =   0.0277778
        k(   22) = (   0.0000000   0.0280101   0.0000000), wk =   0.0555556
        k(   23) = (   0.0000000   0.0560203   0.0000000), wk =   0.0555556
        k(   24) = (   0.0000000  -0.0840304   0.0000000), wk =   0.0277778
        k(   25) = (   0.0252881   0.0000000   0.0000000), wk =   0.0555556
        k(   26) = (   0.0252881   0.0280101   0.0000000), wk =   0.0555556
        k(   27) = (   0.0252881   0.0560203   0.0000000), wk =   0.0555556
        k(   28) = (   0.0252881  -0.0840304   0.0000000), wk =   0.0555556
        k(   29) = (   0.0505763   0.0000000   0.0000000), wk =   0.0555556
        k(   30) = (   0.0505763   0.0280101   0.0000000), wk =   0.0555556
        k(   31) = (   0.0505763   0.0560203   0.0000000), wk =   0.0555556
        k(   32) = (   0.0505763  -0.0840304   0.0000000), wk =   0.0555556
        k(   33) = (  -0.0758644   0.0000000   0.0000000), wk =   0.0277778
        k(   34) = (  -0.0758644   0.0280101   0.0000000), wk =   0.0555556
        k(   35) = (  -0.0758644   0.0560203   0.0000000), wk =   0.0555556
        k(   36) = (  -0.0758644  -0.0840304   0.0000000), wk =   0.0277778
        k(   37) = (  -0.0252881   0.0280101   0.0000000), wk =   0.0555556
        k(   38) = (  -0.0252881   0.0560203   0.0000000), wk =   0.0555556
        k(   39) = (  -0.0505763   0.0280101   0.0000000), wk =   0.0555556
        k(   40) = (  -0.0505763   0.0560203   0.0000000), wk =   0.0555556

     Dense  grid:  1096637 G-vectors     FFT dimensions: (  80,  72, 375)

     Smooth grid:   277353 G-vectors     FFT dimensions: (  54,  45, 240)

     Largest allocated arrays     est. size (Mb)     dimensions
        Kohn-Sham Wavefunctions         9.95 Mb     (    2180,  299)
        NL pseudopotentials            18.89 Mb     (    2180,  568)
        Each V/rho on FFT grid          4.22 Mb     (  138240,   2)
        Each G-vector array             0.52 Mb     (   68538)
        G-vector shells                 0.25 Mb     (   33046)
     Largest temporary arrays     est. size (Mb)     dimensions
        Auxiliary wavefunctions        39.78 Mb     (    2180, 1196)
        Each subspace H/S matrix       21.83 Mb     (    1196, 1196)
        Each <psi_i|beta_j> matrix      2.59 Mb     (     568,  299)
        Arrays for rho mixing          21.09 Mb     (  138240,   10)

     Check: negative/imaginary core charge=   -0.000049    0.000000

     The initial density is read from file :
     ./calc.save/charge-density.dat


     negative rho (up, down):  1.189E-02 1.196E-02


     ************************************************************************
     *
     * You are using vdW-DF for exchange-correlation in this calculation.
     * Please cite the following three references that made this development
     * possible:
     *
     *   M. Dion, H. Rydberg, E. Schroder, D. C. Langreth, and
     *   B. I. Lundqvist, Phys. Rev. Lett. 92, 246401 (2004).
     *
     *   T. Thonhauser, V. R. Cooper, S. Li, A. Puzder, P. Hyldgaard, and
     *   D. C. Langreth, Phys. Rev. B 76, 125112 (2007).
     *
     *   G. Roman-Perez and J. M. Soler, Phys. Rev. Lett. 103, 096102 (2009).
     *
     *
     * If you are using vdW-DF2, please also cite:
     *
     *   K. Lee, E. D. Murray, L. Kong, B. I. Lundqvist, and
     *   D. C. Langreth, Phys. Rev. B 82, 081101(R) (2010).
     *
     *
     * If you are calculating the stress with vdW-DF, please also cite:
     *
     *   R. Sabatini, E. Kucukbenli, B. Kolb, T. Thonhauser, and
     *   S. de Gironcoli, J. Phys.: Condens. Matter 24, 424209 (2012).
     *
     ************************************************************************

     Carrying out vdW-DF run using the following parameters:

     Nqs =      20    Nr_points =    1024   r_max =   100.000
     q_mesh =
               0.00001000     0.04494208     0.09755937     0.15916263
               0.23128650     0.31572767     0.41458969     0.53033537
               0.66584808     0.82450364     1.01025438     1.22772762
               1.48234092     1.78043706     2.12944203     2.53805004
               3.01644009     3.57652955     4.23227104     5.00000000

     Gradients computed in reciprocal space

     ************************************************************************


     Starting wfc are  300 randomized atomic wfcs

     total cpu time spent up to now is       81.7 secs

     Self-consistent Calculation

     iteration #  1     ecut=    40.42 Ry     beta=0.10
     Davidson diagonalization with overlap
     ethr =  1.00E-05,  avg # of iterations = 14.8

     negative rho (up, down):  1.189E-02 1.196E-02
 
     Magnetic moment per site:
     atom:    1    charge:    3.1244    magn:   -0.0003    constr:    0.0000
     atom:    2    charge:    2.0898    magn:    0.0003    constr:    0.0000
     atom:    3    charge:    3.1198    magn:   -0.0000    constr:    0.0000
     atom:    4    charge:    2.0867    magn:   -0.0001    constr:    0.0000
     atom:    5    charge:    3.1161    magn:   -0.0002    constr:    0.0000
     atom:    6    charge:    2.0794    magn:    0.0021    constr:    0.0000
     atom:    7    charge:    3.1166    magn:   -0.0053    constr:    0.0000
     atom:    8    charge:    2.0791    magn:    0.0250    constr:    0.0000
     atom:    9    charge:    3.1245    magn:   -0.0003    constr:    0.0000
     atom:   10    charge:    2.0899    magn:    0.0003    constr:    0.0000
     atom:   11    charge:    3.1198    magn:   -0.0000    constr:    0.0000
     atom:   12    charge:    2.0871    magn:   -0.0000    constr:    0.0000
     atom:   13    charge:    3.1150    magn:   -0.0002    constr:    0.0000
     atom:   14    charge:    2.0938    magn:    0.0023    constr:    0.0000
     atom:   15    charge:    3.1183    magn:   -0.0008    constr:    0.0000
     atom:   16    charge:    2.0827    magn:    0.0047    constr:    0.0000
     atom:   17    charge:    2.0629    magn:    0.0018    constr:    0.0000
     atom:   18    charge:    3.1240    magn:   -0.0001    constr:    0.0000
     atom:   19    charge:    2.0876    magn:    0.0001    constr:    0.0000
     atom:   20    charge:    2.0847    magn:    0.0002    constr:    0.0000
     atom:   21    charge:    2.0847    magn:    0.0002    constr:    0.0000
     atom:   22    charge:    3.1199    magn:    0.0000    constr:    0.0000
     atom:   23    charge:    2.0908    magn:    0.0002    constr:    0.0000
     atom:   24    charge:    2.0753    magn:   -0.0002    constr:    0.0000
     atom:   25    charge:    2.0868    magn:    0.0000    constr:    0.0000
     atom:   26    charge:    3.1127    magn:   -0.0002    constr:    0.0000
     atom:   27    charge:    2.0801    magn:    0.0025    constr:    0.0000
     atom:   28    charge:    2.0838    magn:    0.0006    constr:    0.0000
     atom:   29    charge:    2.0859    magn:    0.0008    constr:    0.0000
     atom:   30    charge:    3.1171    magn:   -0.0008    constr:    0.0000
     atom:   31    charge:    2.0826    magn:    0.0006    constr:    0.0000
     atom:   32    charge:    2.0827    magn:    0.0065    constr:    0.0000
     atom:   33    charge:    2.0629    magn:    0.0018    constr:    0.0000
     atom:   34    charge:    3.1240    magn:   -0.0001    constr:    0.0000
     atom:   35    charge:    2.0876    magn:    0.0001    constr:    0.0000
     atom:   36    charge:    2.0847    magn:    0.0002    constr:    0.0000
     atom:   37    charge:    2.0847    magn:    0.0002    constr:    0.0000
     atom:   38    charge:    3.1200    magn:    0.0000    constr:    0.0000
     atom:   39    charge:    2.0839    magn:    0.0002    constr:    0.0000
     atom:   40    charge:    2.0756    magn:   -0.0003    constr:    0.0000
     atom:   41    charge:    2.0871    magn:   -0.0000    constr:    0.0000
     atom:   42    charge:    3.1151    magn:   -0.0002    constr:    0.0000
     atom:   43    charge:    2.0801    magn:    0.0030    constr:    0.0000
     atom:   44    charge:    2.0850    magn:    0.0008    constr:    0.0000
     atom:   45    charge:    2.0858    magn:    0.0004    constr:    0.0000
     atom:   46    charge:    3.1147    magn:   -0.0007    constr:    0.0000
     atom:   47    charge:    2.0804    magn:    0.0047    constr:    0.0000
     atom:   48    charge:    2.0834    magn:    0.0137    constr:    0.0000
     atom:   49    charge:    2.0516    magn:    0.2400    constr:    0.0000
     atom:   50    charge:    0.6724    magn:    0.0546    constr:    0.0000
     atom:   51    charge:    0.4314    magn:    0.0012    constr:    0.0000
     atom:   52    charge:    0.4227    magn:    0.0008    constr:    0.0000
     atom:   53    charge:    0.3675    magn:    0.0229    constr:    0.0000
     atom:   54    charge:    0.4230    magn:    0.0006    constr:    0.0000

     total cpu time spent up to now is     1050.2 secs

     total energy              =   -3021.14937587 Ry
     Harris-Foulkes estimate   =   -3021.15014515 Ry
     estimated scf accuracy    <       0.00510911 Ry

     total magnetization       =     1.06 Bohr mag/cell
     absolute magnetization    =     1.23 Bohr mag/cell

     iteration #  2     ecut=    40.42 Ry     beta=0.10
     Davidson diagonalization with overlap
     ethr =  1.28E-06,  avg # of iterations =  5.2

     negative rho (up, down):  1.189E-02 1.196E-02
 
     Magnetic moment per site:
     atom:    1    charge:    3.1244    magn:   -0.0003    constr:    0.0000
     atom:    2    charge:    2.0897    magn:    0.0003    constr:    0.0000
     atom:    3    charge:    3.1198    magn:   -0.0000    constr:    0.0000
     atom:    4    charge:    2.0867    magn:   -0.0001    constr:    0.0000
     atom:    5    charge:    3.1161    magn:   -0.0002    constr:    0.0000
     atom:    6    charge:    2.0795    magn:    0.0021    constr:    0.0000
     atom:    7    charge:    3.1166    magn:   -0.0054    constr:    0.0000
     atom:    8    charge:    2.0792    magn:    0.0251    constr:    0.0000
     atom:    9    charge:    3.1244    magn:   -0.0003    constr:    0.0000
     atom:   10    charge:    2.0898    magn:    0.0003    constr:    0.0000
     atom:   11    charge:    3.1198    magn:   -0.0000    constr:    0.0000
     atom:   12    charge:    2.0871    magn:   -0.0000    constr:    0.0000
     atom:   13    charge:    3.1150    magn:   -0.0002    constr:    0.0000
     atom:   14    charge:    2.0939    magn:    0.0023    constr:    0.0000
     atom:   15    charge:    3.1183    magn:   -0.0008    constr:    0.0000
     atom:   16    charge:    2.0828    magn:    0.0046    constr:    0.0000
     atom:   17    charge:    2.0625    magn:    0.0017    constr:    0.0000
     atom:   18    charge:    3.1240    magn:   -0.0001    constr:    0.0000
     atom:   19    charge:    2.0875    magn:    0.0001    constr:    0.0000
     atom:   20    charge:    2.0847    magn:    0.0002    constr:    0.0000
     atom:   21    charge:    2.0847    magn:    0.0002    constr:    0.0000
     atom:   22    charge:    3.1199    magn:    0.0000    constr:    0.0000
     atom:   23    charge:    2.0908    magn:    0.0002    constr:    0.0000
     atom:   24    charge:    2.0754    magn:   -0.0002    constr:    0.0000
     atom:   25    charge:    2.0868    magn:    0.0000    constr:    0.0000
     atom:   26    charge:    3.1127    magn:   -0.0002    constr:    0.0000
     atom:   27    charge:    2.0803    magn:    0.0025    constr:    0.0000
     atom:   28    charge:    2.0839    magn:    0.0006    constr:    0.0000
     atom:   29    charge:    2.0860    magn:    0.0008    constr:    0.0000
     atom:   30    charge:    3.1171    magn:   -0.0008    constr:    0.0000
     atom:   31    charge:    2.0826    magn:    0.0006    constr:    0.0000
     atom:   32    charge:    2.0828    magn:    0.0065    constr:    0.0000
     atom:   33    charge:    2.0624    magn:    0.0018    constr:    0.0000
     atom:   34    charge:    3.1239    magn:   -0.0001    constr:    0.0000
     atom:   35    charge:    2.0876    magn:    0.0001    constr:    0.0000
     atom:   36    charge:    2.0847    magn:    0.0002    constr:    0.0000
     atom:   37    charge:    2.0847    magn:    0.0002    constr:    0.0000
     atom:   38    charge:    3.1200    magn:    0.0000    constr:    0.0000
     atom:   39    charge:    2.0839    magn:    0.0002    constr:    0.0000
     atom:   40    charge:    2.0757    magn:   -0.0003    constr:    0.0000
     atom:   41    charge:    2.0870    magn:   -0.0000    constr:    0.0000
     atom:   42    charge:    3.1151    magn:   -0.0002    constr:    0.0000
     atom:   43    charge:    2.0802    magn:    0.0030    constr:    0.0000
     atom:   44    charge:    2.0851    magn:    0.0008    constr:    0.0000
     atom:   45    charge:    2.0858    magn:    0.0004    constr:    0.0000
     atom:   46    charge:    3.1147    magn:   -0.0007    constr:    0.0000
     atom:   47    charge:    2.0804    magn:    0.0047    constr:    0.0000
     atom:   48    charge:    2.0835    magn:    0.0137    constr:    0.0000
     atom:   49    charge:    2.0516    magn:    0.2400    constr:    0.0000
     atom:   50    charge:    0.6726    magn:    0.0545    constr:    0.0000
     atom:   51    charge:    0.4314    magn:    0.0012    constr:    0.0000
     atom:   52    charge:    0.4227    magn:    0.0008    constr:    0.0000
     atom:   53    charge:    0.3675    magn:    0.0229    constr:    0.0000
     atom:   54    charge:    0.4230    magn:    0.0006    constr:    0.0000

     total cpu time spent up to now is     1324.5 secs

     total energy              =   -3021.14921047 Ry
     Harris-Foulkes estimate   =   -3021.15028389 Ry
     estimated scf accuracy    <       0.02051467 Ry

     total magnetization       =     1.05 Bohr mag/cell
     absolute magnetization    =     1.22 Bohr mag/cell

     iteration #  3     ecut=    40.42 Ry     beta=0.10
     Davidson diagonalization with overlap
     ethr =  1.28E-06,  avg # of iterations =  4.1

     negative rho (up, down):  1.189E-02 1.196E-02
 
     Magnetic moment per site:
     atom:    1    charge:    3.1244    magn:   -0.0003    constr:    0.0000
     atom:    2    charge:    2.0896    magn:    0.0003    constr:    0.0000
     atom:    3    charge:    3.1198    magn:   -0.0000    constr:    0.0000
     atom:    4    charge:    2.0867    magn:   -0.0001    constr:    0.0000
     atom:    5    charge:    3.1161    magn:   -0.0002    constr:    0.0000
     atom:    6    charge:    2.0796    magn:    0.0021    constr:    0.0000
     atom:    7    charge:    3.1166    magn:   -0.0055    constr:    0.0000
     atom:    8    charge:    2.0792    magn:    0.0253    constr:    0.0000
     atom:    9    charge:    3.1244    magn:   -0.0003    constr:    0.0000
     atom:   10    charge:    2.0898    magn:    0.0003    constr:    0.0000
     atom:   11    charge:    3.1198    magn:   -0.0000    constr:    0.0000
     atom:   12    charge:    2.0870    magn:   -0.0000    constr:    0.0000
     atom:   13    charge:    3.1150    magn:   -0.0002    constr:    0.0000
     atom:   14    charge:    2.0939    magn:    0.0023    constr:    0.0000
     atom:   15    charge:    3.1183    magn:   -0.0008    constr:    0.0000
     atom:   16    charge:    2.0829    magn:    0.0046    constr:    0.0000
     atom:   17    charge:    2.0624    magn:    0.0016    constr:    0.0000
     atom:   18    charge:    3.1240    magn:   -0.0001    constr:    0.0000
     atom:   19    charge:    2.0875    magn:    0.0001    constr:    0.0000
     atom:   20    charge:    2.0847    magn:    0.0002    constr:    0.0000
     atom:   21    charge:    2.0847    magn:    0.0001    constr:    0.0000
     atom:   22    charge:    3.1199    magn:    0.0000    constr:    0.0000
     atom:   23    charge:    2.0908    magn:    0.0002    constr:    0.0000
     atom:   24    charge:    2.0753    magn:   -0.0002    constr:    0.0000
     atom:   25    charge:    2.0867    magn:    0.0000    constr:    0.0000
     atom:   26    charge:    3.1127    magn:   -0.0002    constr:    0.0000
     atom:   27    charge:    2.0803    magn:    0.0025    constr:    0.0000
     atom:   28    charge:    2.0839    magn:    0.0006    constr:    0.0000
     atom:   29    charge:    2.0860    magn:    0.0008    constr:    0.0000
     atom:   30    charge:    3.1171    magn:   -0.0008    constr:    0.0000
     atom:   31    charge:    2.0826    magn:    0.0006    constr:    0.0000
     atom:   32    charge:    2.0828    magn:    0.0065    constr:    0.0000
     atom:   33    charge:    2.0624    magn:    0.0016    constr:    0.0000
     atom:   34    charge:    3.1239    magn:   -0.0001    constr:    0.0000
     atom:   35    charge:    2.0875    magn:    0.0001    constr:    0.0000
     atom:   36    charge:    2.0847    magn:    0.0002    constr:    0.0000
     atom:   37    charge:    2.0847    magn:    0.0001    constr:    0.0000
     atom:   38    charge:    3.1200    magn:    0.0000    constr:    0.0000
     atom:   39    charge:    2.0839    magn:    0.0002    constr:    0.0000
     atom:   40    charge:    2.0756    magn:   -0.0002    constr:    0.0000
     atom:   41    charge:    2.0870    magn:   -0.0000    constr:    0.0000
     atom:   42    charge:    3.1151    magn:   -0.0002    constr:    0.0000
     atom:   43    charge:    2.0803    magn:    0.0031    constr:    0.0000
     atom:   44    charge:    2.0851    magn:    0.0008    constr:    0.0000
     atom:   45    charge:    2.0858    magn:    0.0004    constr:    0.0000
     atom:   46    charge:    3.1147    magn:   -0.0007    constr:    0.0000
     atom:   47    charge:    2.0802    magn:    0.0047    constr:    0.0000
     atom:   48    charge:    2.0834    magn:    0.0139    constr:    0.0000
     atom:   49    charge:    2.0515    magn:    0.2405    constr:    0.0000
     atom:   50    charge:    0.6750    magn:    0.0543    constr:    0.0000
     atom:   51    charge:    0.4319    magn:    0.0010    constr:    0.0000
     atom:   52    charge:    0.4228    magn:    0.0007    constr:    0.0000
     atom:   53    charge:    0.3674    magn:    0.0224    constr:    0.0000
     atom:   54    charge:    0.4229    magn:    0.0006    constr:    0.0000

     total cpu time spent up to now is     1575.8 secs

     total energy              =   -3021.14934884 Ry
     Harris-Foulkes estimate   =   -3021.14976902 Ry
     estimated scf accuracy    <       0.00157050 Ry

     total magnetization       =     1.06 Bohr mag/cell
     absolute magnetization    =     1.23 Bohr mag/cell

     iteration #  4     ecut=    40.42 Ry     beta=0.10
     Davidson diagonalization with overlap
     ethr =  3.95E-07,  avg # of iterations =  5.4

     negative rho (up, down):  1.189E-02 1.196E-02
 
     Magnetic moment per site:
     atom:    1    charge:    3.1244    magn:   -0.0003    constr:    0.0000
     atom:    2    charge:    2.0896    magn:    0.0003    constr:    0.0000
     atom:    3    charge:    3.1198    magn:   -0.0000    constr:    0.0000
     atom:    4    charge:    2.0867    magn:   -0.0001    constr:    0.0000
     atom:    5    charge:    3.1161    magn:   -0.0002    constr:    0.0000
     atom:    6    charge:    2.0795    magn:    0.0021    constr:    0.0000
     atom:    7    charge:    3.1166    magn:   -0.0055    constr:    0.0000
     atom:    8    charge:    2.0792    magn:    0.0253    constr:    0.0000
     atom:    9    charge:    3.1244    magn:   -0.0003    constr:    0.0000
     atom:   10    charge:    2.0898    magn:    0.0003    constr:    0.0000
     atom:   11    charge:    3.1198    magn:   -0.0000    constr:    0.0000
     atom:   12    charge:    2.0870    magn:   -0.0000    constr:    0.0000
     atom:   13    charge:    3.1150    magn:   -0.0002    constr:    0.0000
     atom:   14    charge:    2.0939    magn:    0.0023    constr:    0.0000
     atom:   15    charge:    3.1183    magn:   -0.0008    constr:    0.0000
     atom:   16    charge:    2.0828    magn:    0.0046    constr:    0.0000
     atom:   17    charge:    2.0623    magn:    0.0016    constr:    0.0000
     atom:   18    charge:    3.1239    magn:   -0.0001    constr:    0.0000
     atom:   19    charge:    2.0875    magn:    0.0001    constr:    0.0000
     atom:   20    charge:    2.0847    magn:    0.0001    constr:    0.0000
     atom:   21    charge:    2.0847    magn:    0.0001    constr:    0.0000
     atom:   22    charge:    3.1199    magn:    0.0000    constr:    0.0000
     atom:   23    charge:    2.0908    magn:    0.0002    constr:    0.0000
     atom:   24    charge:    2.0754    magn:   -0.0001    constr:    0.0000
     atom:   25    charge:    2.0867    magn:    0.0000    constr:    0.0000
     atom:   26    charge:    3.1127    magn:   -0.0002    constr:    0.0000
     atom:   27    charge:    2.0803    magn:    0.0025    constr:    0.0000
     atom:   28    charge:    2.0839    magn:    0.0006    constr:    0.0000
     atom:   29    charge:    2.0860    magn:    0.0008    constr:    0.0000
     atom:   30    charge:    3.1171    magn:   -0.0008    constr:    0.0000
     atom:   31    charge:    2.0825    magn:    0.0006    constr:    0.0000
     atom:   32    charge:    2.0828    magn:    0.0065    constr:    0.0000
     atom:   33    charge:    2.0623    magn:    0.0016    constr:    0.0000
     atom:   34    charge:    3.1239    magn:   -0.0001    constr:    0.0000
     atom:   35    charge:    2.0876    magn:    0.0001    constr:    0.0000
     atom:   36    charge:    2.0847    magn:    0.0001    constr:    0.0000
     atom:   37    charge:    2.0847    magn:    0.0001    constr:    0.0000
     atom:   38    charge:    3.1200    magn:    0.0000    constr:    0.0000
     atom:   39    charge:    2.0839    magn:    0.0002    constr:    0.0000
     atom:   40    charge:    2.0756    magn:   -0.0002    constr:    0.0000
     atom:   41    charge:    2.0870    magn:   -0.0000    constr:    0.0000
     atom:   42    charge:    3.1151    magn:   -0.0002    constr:    0.0000
     atom:   43    charge:    2.0803    magn:    0.0031    constr:    0.0000
     atom:   44    charge:    2.0851    magn:    0.0009    constr:    0.0000
     atom:   45    charge:    2.0859    magn:    0.0004    constr:    0.0000
     atom:   46    charge:    3.1147    magn:   -0.0007    constr:    0.0000
     atom:   47    charge:    2.0802    magn:    0.0048    constr:    0.0000
     atom:   48    charge:    2.0835    magn:    0.0138    constr:    0.0000
     atom:   49    charge:    2.0515    magn:    0.2405    constr:    0.0000
     atom:   50    charge:    0.6751    magn:    0.0543    constr:    0.0000
     atom:   51    charge:    0.4321    magn:    0.0010    constr:    0.0000
     atom:   52    charge:    0.4228    magn:    0.0007    constr:    0.0000
     atom:   53    charge:    0.3673    magn:    0.0224    constr:    0.0000
     atom:   54    charge:    0.4229    magn:    0.0006    constr:    0.0000

     total cpu time spent up to now is     1864.0 secs

     total energy              =   -3021.14949110 Ry
     Harris-Foulkes estimate   =   -3021.14951763 Ry
     estimated scf accuracy    <       0.00038859 Ry

     total magnetization       =     1.06 Bohr mag/cell
     absolute magnetization    =     1.23 Bohr mag/cell

     iteration #  5     ecut=    40.42 Ry     beta=0.10
     Davidson diagonalization with overlap
     ethr =  9.76E-08,  avg # of iterations =  1.0

     negative rho (up, down):  1.189E-02 1.196E-02
 
     Magnetic moment per site:
     atom:    1    charge:    3.1244    magn:   -0.0003    constr:    0.0000
     atom:    2    charge:    2.0897    magn:    0.0002    constr:    0.0000
     atom:    3    charge:    3.1198    magn:   -0.0000    constr:    0.0000
     atom:    4    charge:    2.0867    magn:   -0.0001    constr:    0.0000
     atom:    5    charge:    3.1161    magn:   -0.0002    constr:    0.0000
     atom:    6    charge:    2.0795    magn:    0.0021    constr:    0.0000
     atom:    7    charge:    3.1167    magn:   -0.0054    constr:    0.0000
     atom:    8    charge:    2.0793    magn:    0.0253    constr:    0.0000
     atom:    9    charge:    3.1244    magn:   -0.0003    constr:    0.0000
     atom:   10    charge:    2.0898    magn:    0.0003    constr:    0.0000
     atom:   11    charge:    3.1198    magn:   -0.0000    constr:    0.0000
     atom:   12    charge:    2.0870    magn:   -0.0000    constr:    0.0000
     atom:   13    charge:    3.1150    magn:   -0.0002    constr:    0.0000
     atom:   14    charge:    2.0939    magn:    0.0023    constr:    0.0000
     atom:   15    charge:    3.1184    magn:   -0.0008    constr:    0.0000
     atom:   16    charge:    2.0828    magn:    0.0046    constr:    0.0000
     atom:   17    charge:    2.0624    magn:    0.0015    constr:    0.0000
     atom:   18    charge:    3.1239    magn:   -0.0001    constr:    0.0000
     atom:   19    charge:    2.0876    magn:    0.0001    constr:    0.0000
     atom:   20    charge:    2.0847    magn:    0.0001    constr:    0.0000
     atom:   21    charge:    2.0847    magn:    0.0001    constr:    0.0000
     atom:   22    charge:    3.1199    magn:    0.0000    constr:    0.0000
     atom:   23    charge:    2.0908    magn:    0.0002    constr:    0.0000
     atom:   24    charge:    2.0754    magn:   -0.0001    constr:    0.0000
     atom:   25    charge:    2.0867    magn:    0.0000    constr:    0.0000
     atom:   26    charge:    3.1127    magn:   -0.0002    constr:    0.0000
     atom:   27    charge:    2.0802    magn:    0.0026    constr:    0.0000
     atom:   28    charge:    2.0839    magn:    0.0007    constr:    0.0000
     atom:   29    charge:    2.0860    magn:    0.0008    constr:    0.0000
     atom:   30    charge:    3.1171    magn:   -0.0008    constr:    0.0000
     atom:   31    charge:    2.0824    magn:    0.0006    constr:    0.0000
     atom:   32    charge:    2.0829    magn:    0.0065    constr:    0.0000
     atom:   33    charge:    2.0624    magn:    0.0015    constr:    0.0000
     atom:   34    charge:    3.1239    magn:   -0.0001    constr:    0.0000
     atom:   35    charge:    2.0876    magn:    0.0001    constr:    0.0000
     atom:   36    charge:    2.0847    magn:    0.0001    constr:    0.0000
     atom:   37    charge:    2.0847    magn:    0.0001    constr:    0.0000
     atom:   38    charge:    3.1200    magn:    0.0000    constr:    0.0000
     atom:   39    charge:    2.0839    magn:    0.0002    constr:    0.0000
     atom:   40    charge:    2.0756    magn:   -0.0002    constr:    0.0000
     atom:   41    charge:    2.0870    magn:   -0.0000    constr:    0.0000
     atom:   42    charge:    3.1151    magn:   -0.0002    constr:    0.0000
     atom:   43    charge:    2.0803    magn:    0.0031    constr:    0.0000
     atom:   44    charge:    2.0851    magn:    0.0009    constr:    0.0000
     atom:   45    charge:    2.0858    magn:    0.0004    constr:    0.0000
     atom:   46    charge:    3.1148    magn:   -0.0007    constr:    0.0000
     atom:   47    charge:    2.0805    magn:    0.0048    constr:    0.0000
     atom:   48    charge:    2.0838    magn:    0.0138    constr:    0.0000
     atom:   49    charge:    2.0518    magn:    0.2405    constr:    0.0000
     atom:   50    charge:    0.6747    magn:    0.0543    constr:    0.0000
     atom:   51    charge:    0.4325    magn:    0.0009    constr:    0.0000
     atom:   52    charge:    0.4228    magn:    0.0008    constr:    0.0000
     atom:   53    charge:    0.3672    magn:    0.0226    constr:    0.0000
     atom:   54    charge:    0.4230    magn:    0.0007    constr:    0.0000

     total cpu time spent up to now is     2065.3 secs

     total energy              =   -3021.14947103 Ry
     Harris-Foulkes estimate   =   -3021.14949811 Ry
     estimated scf accuracy    <       0.00023951 Ry

     total magnetization       =     1.06 Bohr mag/cell
     absolute magnetization    =     1.23 Bohr mag/cell

     iteration #  6     ecut=    40.42 Ry     beta=0.10
     Davidson diagonalization with overlap
     ethr =  6.02E-08,  avg # of iterations =  2.9

     negative rho (up, down):  1.189E-02 1.196E-02
 
     Magnetic moment per site:
     atom:    1    charge:    3.1244    magn:   -0.0002    constr:    0.0000
     atom:    2    charge:    2.0897    magn:    0.0002    constr:    0.0000
     atom:    3    charge:    3.1198    magn:   -0.0000    constr:    0.0000
     atom:    4    charge:    2.0867    magn:   -0.0001    constr:    0.0000
     atom:    5    charge:    3.1161    magn:   -0.0003    constr:    0.0000
     atom:    6    charge:    2.0795    magn:    0.0021    constr:    0.0000
     atom:    7    charge:    3.1167    magn:   -0.0054    constr:    0.0000
     atom:    8    charge:    2.0794    magn:    0.0253    constr:    0.0000
     atom:    9    charge:    3.1244    magn:   -0.0002    constr:    0.0000
     atom:   10    charge:    2.0898    magn:    0.0002    constr:    0.0000
     atom:   11    charge:    3.1198    magn:   -0.0000    constr:    0.0000
     atom:   12    charge:    2.0870    magn:   -0.0000    constr:    0.0000
     atom:   13    charge:    3.1150    magn:   -0.0002    constr:    0.0000
     atom:   14    charge:    2.0939    magn:    0.0023    constr:    0.0000
     atom:   15    charge:    3.1184    magn:   -0.0008    constr:    0.0000
     atom:   16    charge:    2.0828    magn:    0.0046    constr:    0.0000
     atom:   17    charge:    2.0624    magn:    0.0013    constr:    0.0000
     atom:   18    charge:    3.1239    magn:   -0.0001    constr:    0.0000
     atom:   19    charge:    2.0875    magn:    0.0000    constr:    0.0000
     atom:   20    charge:    2.0847    magn:    0.0001    constr:    0.0000
     atom:   21    charge:    2.0847    magn:    0.0001    constr:    0.0000
     atom:   22    charge:    3.1199    magn:    0.0000    constr:    0.0000
     atom:   23    charge:    2.0908    magn:    0.0002    constr:    0.0000
     atom:   24    charge:    2.0754    magn:   -0.0001    constr:    0.0000
     atom:   25    charge:    2.0867    magn:    0.0000    constr:    0.0000
     atom:   26    charge:    3.1127    magn:   -0.0002    constr:    0.0000
     atom:   27    charge:    2.0802    magn:    0.0026    constr:    0.0000
     atom:   28    charge:    2.0839    magn:    0.0007    constr:    0.0000
     atom:   29    charge:    2.0860    magn:    0.0008    constr:    0.0000
     atom:   30    charge:    3.1171    magn:   -0.0008    constr:    0.0000
     atom:   31    charge:    2.0825    magn:    0.0006    constr:    0.0000
     atom:   32    charge:    2.0830    magn:    0.0065    constr:    0.0000
     atom:   33    charge:    2.0624    magn:    0.0013    constr:    0.0000
     atom:   34    charge:    3.1239    magn:   -0.0001    constr:    0.0000
     atom:   35    charge:    2.0876    magn:    0.0000    constr:    0.0000
     atom:   36    charge:    2.0847    magn:    0.0001    constr:    0.0000
     atom:   37    charge:    2.0847    magn:    0.0001    constr:    0.0000
     atom:   38    charge:    3.1200    magn:    0.0000    constr:    0.0000
     atom:   39    charge:    2.0839    magn:    0.0002    constr:    0.0000
     atom:   40    charge:    2.0756    magn:   -0.0002    constr:    0.0000
     atom:   41    charge:    2.0870    magn:   -0.0000    constr:    0.0000
     atom:   42    charge:    3.1151    magn:   -0.0002    constr:    0.0000
     atom:   43    charge:    2.0803    magn:    0.0031    constr:    0.0000
     atom:   44    charge:    2.0851    magn:    0.0009    constr:    0.0000
     atom:   45    charge:    2.0858    magn:    0.0005    constr:    0.0000
     atom:   46    charge:    3.1148    magn:   -0.0007    constr:    0.0000
     atom:   47    charge:    2.0807    magn:    0.0048    constr:    0.0000
     atom:   48    charge:    2.0839    magn:    0.0137    constr:    0.0000
     atom:   49    charge:    2.0519    magn:    0.2405    constr:    0.0000
     atom:   50    charge:    0.6745    magn:    0.0542    constr:    0.0000
     atom:   51    charge:    0.4330    magn:    0.0009    constr:    0.0000
     atom:   52    charge:    0.4229    magn:    0.0008    constr:    0.0000
     atom:   53    charge:    0.3672    magn:    0.0227    constr:    0.0000
     atom:   54    charge:    0.4230    magn:    0.0007    constr:    0.0000

     total cpu time spent up to now is     2300.1 secs

     total energy              =   -3021.14947274 Ry
     Harris-Foulkes estimate   =   -3021.14947816 Ry
     estimated scf accuracy    <       0.00009405 Ry

     total magnetization       =     1.06 Bohr mag/cell
     absolute magnetization    =     1.23 Bohr mag/cell

     iteration #  7     ecut=    40.42 Ry     beta=0.10
     Davidson diagonalization with overlap
     ethr =  2.36E-08,  avg # of iterations =  3.0

     negative rho (up, down):  1.189E-02 1.196E-02
 
     Magnetic moment per site:
     atom:    1    charge:    3.1244    magn:   -0.0002    constr:    0.0000
     atom:    2    charge:    2.0897    magn:    0.0002    constr:    0.0000
     atom:    3    charge:    3.1198    magn:   -0.0000    constr:    0.0000
     atom:    4    charge:    2.0867    magn:   -0.0001    constr:    0.0000
     atom:    5    charge:    3.1161    magn:   -0.0003    constr:    0.0000
     atom:    6    charge:    2.0795    magn:    0.0021    constr:    0.0000
     atom:    7    charge:    3.1167    magn:   -0.0054    constr:    0.0000
     atom:    8    charge:    2.0793    magn:    0.0253    constr:    0.0000
     atom:    9    charge:    3.1244    magn:   -0.0002    constr:    0.0000
     atom:   10    charge:    2.0898    magn:    0.0002    constr:    0.0000
     atom:   11    charge:    3.1198    magn:   -0.0000    constr:    0.0000
     atom:   12    charge:    2.0870    magn:   -0.0000    constr:    0.0000
     atom:   13    charge:    3.1150    magn:   -0.0002    constr:    0.0000
     atom:   14    charge:    2.0939    magn:    0.0023    constr:    0.0000
     atom:   15    charge:    3.1184    magn:   -0.0008    constr:    0.0000
     atom:   16    charge:    2.0829    magn:    0.0046    constr:    0.0000
     atom:   17    charge:    2.0624    magn:    0.0012    constr:    0.0000
     atom:   18    charge:    3.1240    magn:   -0.0000    constr:    0.0000
     atom:   19    charge:    2.0875    magn:    0.0000    constr:    0.0000
     atom:   20    charge:    2.0847    magn:    0.0001    constr:    0.0000
     atom:   21    charge:    2.0847    magn:    0.0001    constr:    0.0000
     atom:   22    charge:    3.1199    magn:    0.0000    constr:    0.0000
     atom:   23    charge:    2.0908    magn:    0.0003    constr:    0.0000
     atom:   24    charge:    2.0754    magn:   -0.0001    constr:    0.0000
     atom:   25    charge:    2.0867    magn:    0.0000    constr:    0.0000
     atom:   26    charge:    3.1127    magn:   -0.0003    constr:    0.0000
     atom:   27    charge:    2.0802    magn:    0.0026    constr:    0.0000
     atom:   28    charge:    2.0839    magn:    0.0007    constr:    0.0000
     atom:   29    charge:    2.0860    magn:    0.0009    constr:    0.0000
     atom:   30    charge:    3.1171    magn:   -0.0008    constr:    0.0000
     atom:   31    charge:    2.0826    magn:    0.0006    constr:    0.0000
     atom:   32    charge:    2.0829    magn:    0.0065    constr:    0.0000
     atom:   33    charge:    2.0624    magn:    0.0012    constr:    0.0000
     atom:   34    charge:    3.1239    magn:   -0.0000    constr:    0.0000
     atom:   35    charge:    2.0875    magn:    0.0000    constr:    0.0000
     atom:   36    charge:    2.0847    magn:    0.0001    constr:    0.0000
     atom:   37    charge:    2.0847    magn:    0.0001    constr:    0.0000
     atom:   38    charge:    3.1200    magn:    0.0000    constr:    0.0000
     atom:   39    charge:    2.0839    magn:    0.0002    constr:    0.0000
     atom:   40    charge:    2.0756    magn:   -0.0001    constr:    0.0000
     atom:   41    charge:    2.0870    magn:   -0.0000    constr:    0.0000
     atom:   42    charge:    3.1151    magn:   -0.0002    constr:    0.0000
     atom:   43    charge:    2.0802    magn:    0.0032    constr:    0.0000
     atom:   44    charge:    2.0851    magn:    0.0009    constr:    0.0000
     atom:   45    charge:    2.0858    magn:    0.0005    constr:    0.0000
     atom:   46    charge:    3.1148    magn:   -0.0007    constr:    0.0000
     atom:   47    charge:    2.0807    magn:    0.0048    constr:    0.0000
     atom:   48    charge:    2.0838    magn:    0.0137    constr:    0.0000
     atom:   49    charge:    2.0518    magn:    0.2405    constr:    0.0000
     atom:   50    charge:    0.6741    magn:    0.0542    constr:    0.0000
     atom:   51    charge:    0.4332    magn:    0.0008    constr:    0.0000
     atom:   52    charge:    0.4228    magn:    0.0009    constr:    0.0000
     atom:   53    charge:    0.3674    magn:    0.0228    constr:    0.0000
     atom:   54    charge:    0.4230    magn:    0.0008    constr:    0.0000

     total cpu time spent up to now is     2538.8 secs

     total energy              =   -3021.14947709 Ry
     Harris-Foulkes estimate   =   -3021.14947818 Ry
     estimated scf accuracy    <       0.00002032 Ry

     total magnetization       =     1.06 Bohr mag/cell
     absolute magnetization    =     1.23 Bohr mag/cell

     iteration #  8     ecut=    40.42 Ry     beta=0.10
     Davidson diagonalization with overlap
     ethr =  5.11E-09,  avg # of iterations =  3.0

     negative rho (up, down):  1.189E-02 1.196E-02
 
     Magnetic moment per site:
     atom:    1    charge:    3.1244    magn:   -0.0002    constr:    0.0000
     atom:    2    charge:    2.0897    magn:    0.0002    constr:    0.0000
     atom:    3    charge:    3.1198    magn:   -0.0000    constr:    0.0000
     atom:    4    charge:    2.0867    magn:   -0.0001    constr:    0.0000
     atom:    5    charge:    3.1161    magn:   -0.0003    constr:    0.0000
     atom:    6    charge:    2.0795    magn:    0.0022    constr:    0.0000
     atom:    7    charge:    3.1167    magn:   -0.0054    constr:    0.0000
     atom:    8    charge:    2.0792    magn:    0.0253    constr:    0.0000
     atom:    9    charge:    3.1244    magn:   -0.0002    constr:    0.0000
     atom:   10    charge:    2.0898    magn:    0.0002    constr:    0.0000
     atom:   11    charge:    3.1198    magn:   -0.0000    constr:    0.0000
     atom:   12    charge:    2.0870    magn:   -0.0000    constr:    0.0000
     atom:   13    charge:    3.1150    magn:   -0.0002    constr:    0.0000
     atom:   14    charge:    2.0939    magn:    0.0023    constr:    0.0000
     atom:   15    charge:    3.1184    magn:   -0.0008    constr:    0.0000
     atom:   16    charge:    2.0828    magn:    0.0047    constr:    0.0000
     atom:   17    charge:    2.0624    magn:    0.0011    constr:    0.0000
     atom:   18    charge:    3.1239    magn:   -0.0000    constr:    0.0000
     atom:   19    charge:    2.0875    magn:    0.0000    constr:    0.0000
     atom:   20    charge:    2.0847    magn:    0.0001    constr:    0.0000
     atom:   21    charge:    2.0847    magn:    0.0001    constr:    0.0000
     atom:   22    charge:    3.1199    magn:    0.0000    constr:    0.0000
     atom:   23    charge:    2.0908    magn:    0.0003    constr:    0.0000
     atom:   24    charge:    2.0754    magn:   -0.0000    constr:    0.0000
     atom:   25    charge:    2.0867    magn:    0.0000    constr:    0.0000
     atom:   26    charge:    3.1127    magn:   -0.0003    constr:    0.0000
     atom:   27    charge:    2.0802    magn:    0.0027    constr:    0.0000
     atom:   28    charge:    2.0839    magn:    0.0007    constr:    0.0000
     atom:   29    charge:    2.0860    magn:    0.0009    constr:    0.0000
     atom:   30    charge:    3.1171    magn:   -0.0008    constr:    0.0000
     atom:   31    charge:    2.0826    magn:    0.0006    constr:    0.0000
     atom:   32    charge:    2.0829    magn:    0.0065    constr:    0.0000
     atom:   33    charge:    2.0624    magn:    0.0011    constr:    0.0000
     atom:   34    charge:    3.1239    magn:   -0.0000    constr:    0.0000
     atom:   35    charge:    2.0876    magn:    0.0000    constr:    0.0000
     atom:   36    charge:    2.0847    magn:    0.0001    constr:    0.0000
     atom:   37    charge:    2.0847    magn:    0.0001    constr:    0.0000
     atom:   38    charge:    3.1200    magn:    0.0000    constr:    0.0000
     atom:   39    charge:    2.0839    magn:    0.0002    constr:    0.0000
     atom:   40    charge:    2.0756    magn:   -0.0001    constr:    0.0000
     atom:   41    charge:    2.0870    magn:   -0.0000    constr:    0.0000
     atom:   42    charge:    3.1151    magn:   -0.0002    constr:    0.0000
     atom:   43    charge:    2.0803    magn:    0.0032    constr:    0.0000
     atom:   44    charge:    2.0851    magn:    0.0010    constr:    0.0000
     atom:   45    charge:    2.0858    magn:    0.0005    constr:    0.0000
     atom:   46    charge:    3.1148    magn:   -0.0007    constr:    0.0000
     atom:   47    charge:    2.0806    magn:    0.0048    constr:    0.0000
     atom:   48    charge:    2.0837    magn:    0.0137    constr:    0.0000
     atom:   49    charge:    2.0517    magn:    0.2405    constr:    0.0000
     atom:   50    charge:    0.6738    magn:    0.0542    constr:    0.0000
     atom:   51    charge:    0.4332    magn:    0.0008    constr:    0.0000
     atom:   52    charge:    0.4228    magn:    0.0009    constr:    0.0000
     atom:   53    charge:    0.3676    magn:    0.0229    constr:    0.0000
     atom:   54    charge:    0.4231    magn:    0.0008    constr:    0.0000

     total cpu time spent up to now is     2776.9 secs

     total energy              =   -3021.14947732 Ry
     Harris-Foulkes estimate   =   -3021.14947813 Ry
     estimated scf accuracy    <       0.00000594 Ry

     total magnetization       =     1.06 Bohr mag/cell
     absolute magnetization    =     1.23 Bohr mag/cell

     iteration #  9     ecut=    40.42 Ry     beta=0.10
     Davidson diagonalization with overlap
     ethr =  1.49E-09,  avg # of iterations =  3.0

     negative rho (up, down):  1.189E-02 1.196E-02
 
     Magnetic moment per site:
     atom:    1    charge:    3.1244    magn:   -0.0002    constr:    0.0000
     atom:    2    charge:    2.0897    magn:    0.0002    constr:    0.0000
     atom:    3    charge:    3.1198    magn:   -0.0000    constr:    0.0000
     atom:    4    charge:    2.0867    magn:   -0.0001    constr:    0.0000
     atom:    5    charge:    3.1161    magn:   -0.0003    constr:    0.0000
     atom:    6    charge:    2.0795    magn:    0.0022    constr:    0.0000
     atom:    7    charge:    3.1167    magn:   -0.0054    constr:    0.0000
     atom:    8    charge:    2.0793    magn:    0.0253    constr:    0.0000
     atom:    9    charge:    3.1244    magn:   -0.0002    constr:    0.0000
     atom:   10    charge:    2.0898    magn:    0.0002    constr:    0.0000
     atom:   11    charge:    3.1198    magn:   -0.0000    constr:    0.0000
     atom:   12    charge:    2.0870    magn:   -0.0000    constr:    0.0000
     atom:   13    charge:    3.1150    magn:   -0.0002    constr:    0.0000
     atom:   14    charge:    2.0939    magn:    0.0023    constr:    0.0000
     atom:   15    charge:    3.1184    magn:   -0.0008    constr:    0.0000
     atom:   16    charge:    2.0828    magn:    0.0047    constr:    0.0000
     atom:   17    charge:    2.0624    magn:    0.0010    constr:    0.0000
     atom:   18    charge:    3.1239    magn:   -0.0000    constr:    0.0000
     atom:   19    charge:    2.0875    magn:    0.0000    constr:    0.0000
     atom:   20    charge:    2.0847    magn:    0.0001    constr:    0.0000
     atom:   21    charge:    2.0847    magn:    0.0001    constr:    0.0000
     atom:   22    charge:    3.1199    magn:    0.0000    constr:    0.0000
     atom:   23    charge:    2.0908    magn:    0.0003    constr:    0.0000
     atom:   24    charge:    2.0754    magn:   -0.0000    constr:    0.0000
     atom:   25    charge:    2.0867    magn:    0.0000    constr:    0.0000
     atom:   26    charge:    3.1127    magn:   -0.0003    constr:    0.0000
     atom:   27    charge:    2.0803    magn:    0.0027    constr:    0.0000
     atom:   28    charge:    2.0839    magn:    0.0008    constr:    0.0000
     atom:   29    charge:    2.0860    magn:    0.0009    constr:    0.0000
     atom:   30    charge:    3.1171    magn:   -0.0008    constr:    0.0000
     atom:   31    charge:    2.0825    magn:    0.0006    constr:    0.0000
     atom:   32    charge:    2.0829    magn:    0.0065    constr:    0.0000
     atom:   33    charge:    2.0624    magn:    0.0010    constr:    0.0000
     atom:   34    charge:    3.1239    magn:   -0.0000    constr:    0.0000
     atom:   35    charge:    2.0876    magn:    0.0000    constr:    0.0000
     atom:   36    charge:    2.0847    magn:    0.0001    constr:    0.0000
     atom:   37    charge:    2.0847    magn:    0.0001    constr:    0.0000
     atom:   38    charge:    3.1200    magn:    0.0000    constr:    0.0000
     atom:   39    charge:    2.0839    magn:    0.0002    constr:    0.0000
     atom:   40    charge:    2.0756    magn:   -0.0001    constr:    0.0000
     atom:   41    charge:    2.0870    magn:   -0.0000    constr:    0.0000
     atom:   42    charge:    3.1151    magn:   -0.0002    constr:    0.0000
     atom:   43    charge:    2.0803    magn:    0.0032    constr:    0.0000
     atom:   44    charge:    2.0851    magn:    0.0010    constr:    0.0000
     atom:   45    charge:    2.0858    magn:    0.0005    constr:    0.0000
     atom:   46    charge:    3.1148    magn:   -0.0007    constr:    0.0000
     atom:   47    charge:    2.0806    magn:    0.0048    constr:    0.0000
     atom:   48    charge:    2.0837    magn:    0.0137    constr:    0.0000
     atom:   49    charge:    2.0517    magn:    0.2406    constr:    0.0000
     atom:   50    charge:    0.6739    magn:    0.0542    constr:    0.0000
     atom:   51    charge:    0.4333    magn:    0.0008    constr:    0.0000
     atom:   52    charge:    0.4228    magn:    0.0009    constr:    0.0000
     atom:   53    charge:    0.3676    magn:    0.0228    constr:    0.0000
     atom:   54    charge:    0.4231    magn:    0.0008    constr:    0.0000

     total cpu time spent up to now is     3025.5 secs

     total energy              =   -3021.14947798 Ry
     Harris-Foulkes estimate   =   -3021.14947807 Ry
     estimated scf accuracy    <       0.00000156 Ry

     total magnetization       =     1.06 Bohr mag/cell
     absolute magnetization    =     1.23 Bohr mag/cell

     iteration # 10     ecut=    40.42 Ry     beta=0.10
     Davidson diagonalization with overlap
     ethr =  3.92E-10,  avg # of iterations =  3.0

     negative rho (up, down):  1.189E-02 1.196E-02
 
     Magnetic moment per site:
     atom:    1    charge:    3.1244    magn:   -0.0001    constr:    0.0000
     atom:    2    charge:    2.0897    magn:    0.0001    constr:    0.0000
     atom:    3    charge:    3.1198    magn:   -0.0000    constr:    0.0000
     atom:    4    charge:    2.0867    magn:   -0.0001    constr:    0.0000
     atom:    5    charge:    3.1161    magn:   -0.0003    constr:    0.0000
     atom:    6    charge:    2.0795    magn:    0.0022    constr:    0.0000
     atom:    7    charge:    3.1167    magn:   -0.0054    constr:    0.0000
     atom:    8    charge:    2.0793    magn:    0.0253    constr:    0.0000
     atom:    9    charge:    3.1244    magn:   -0.0001    constr:    0.0000
     atom:   10    charge:    2.0898    magn:    0.0001    constr:    0.0000
     atom:   11    charge:    3.1198    magn:   -0.0000    constr:    0.0000
     atom:   12    charge:    2.0870    magn:   -0.0000    constr:    0.0000
     atom:   13    charge:    3.1150    magn:   -0.0002    constr:    0.0000
     atom:   14    charge:    2.0939    magn:    0.0023    constr:    0.0000
     atom:   15    charge:    3.1184    magn:   -0.0008    constr:    0.0000
     atom:   16    charge:    2.0828    magn:    0.0047    constr:    0.0000
     atom:   17    charge:    2.0624    magn:    0.0008    constr:    0.0000
     atom:   18    charge:    3.1240    magn:   -0.0000    constr:    0.0000
     atom:   19    charge:    2.0875    magn:    0.0000    constr:    0.0000
     atom:   20    charge:    2.0847    magn:    0.0001    constr:    0.0000
     atom:   21    charge:    2.0847    magn:    0.0001    constr:    0.0000
     atom:   22    charge:    3.1199    magn:    0.0000    constr:    0.0000
     atom:   23    charge:    2.0908    magn:    0.0003    constr:    0.0000
     atom:   24    charge:    2.0754    magn:   -0.0000    constr:    0.0000
     atom:   25    charge:    2.0867    magn:    0.0000    constr:    0.0000
     atom:   26    charge:    3.1127    magn:   -0.0003    constr:    0.0000
     atom:   27    charge:    2.0803    magn:    0.0027    constr:    0.0000
     atom:   28    charge:    2.0839    magn:    0.0008    constr:    0.0000
     atom:   29    charge:    2.0860    magn:    0.0009    constr:    0.0000
     atom:   30    charge:    3.1171    magn:   -0.0008    constr:    0.0000
     atom:   31    charge:    2.0825    magn:    0.0006    constr:    0.0000
     atom:   32    charge:    2.0829    magn:    0.0065    constr:    0.0000
     atom:   33    charge:    2.0624    magn:    0.0008    constr:    0.0000
     atom:   34    charge:    3.1239    magn:   -0.0000    constr:    0.0000
     atom:   35    charge:    2.0875    magn:    0.0000    constr:    0.0000
     atom:   36    charge:    2.0847    magn:    0.0001    constr:    0.0000
     atom:   37    charge:    2.0847    magn:    0.0001    constr:    0.0000
     atom:   38    charge:    3.1200    magn:    0.0000    constr:    0.0000
     atom:   39    charge:    2.0839    magn:    0.0002    constr:    0.0000
     atom:   40    charge:    2.0756    magn:   -0.0001    constr:    0.0000
     atom:   41    charge:    2.0870    magn:   -0.0000    constr:    0.0000
     atom:   42    charge:    3.1151    magn:   -0.0003    constr:    0.0000
     atom:   43    charge:    2.0803    magn:    0.0033    constr:    0.0000
     atom:   44    charge:    2.0851    magn:    0.0010    constr:    0.0000
     atom:   45    charge:    2.0858    magn:    0.0006    constr:    0.0000
     atom:   46    charge:    3.1147    magn:   -0.0008    constr:    0.0000
     atom:   47    charge:    2.0805    magn:    0.0048    constr:    0.0000
     atom:   48    charge:    2.0837    magn:    0.0136    constr:    0.0000
     atom:   49    charge:    2.0518    magn:    0.2406    constr:    0.0000
     atom:   50    charge:    0.6739    magn:    0.0542    constr:    0.0000
     atom:   51    charge:    0.4333    magn:    0.0008    constr:    0.0000
     atom:   52    charge:    0.4228    magn:    0.0009    constr:    0.0000
     atom:   53    charge:    0.3676    magn:    0.0229    constr:    0.0000
     atom:   54    charge:    0.4231    magn:    0.0008    constr:    0.0000

     total cpu time spent up to now is     3263.9 secs

     End of self-consistent calculation

 ------ SPIN UP ------------


          k = 0.0000 0.0000 0.0000 ( 34665 PWs)   bands (ev):

   -58.3097 -58.2747 -57.3916 -57.3859 -57.3528 -57.3152 -57.2640 -57.0952
   -57.0684 -57.0627 -57.0242 -56.9259 -56.9018 -56.8906 -56.8035 -56.7651
   -34.7549 -34.5783 -34.5495 -34.5163 -34.4213 -34.3644 -33.8866 -33.8743
   -33.7563 -33.6832 -33.6411 -33.5984 -33.5659 -33.5591 -33.5532 -33.5466
   -33.5352 -33.5202 -33.4948 -33.4935 -33.4790 -33.4775 -33.4746 -33.4558
   -33.3453 -33.3384 -33.3355 -33.3331 -33.3202 -33.2921 -33.2862 -33.2666
   -33.2462 -33.2410 -33.2402 -33.2310 -33.2032 -33.1804 -33.1465 -33.1445
   -33.1068 -33.0816 -33.0545 -33.0318 -33.0184 -32.9924 -32.9528 -32.8847
   -18.4749 -18.0422 -17.8179 -17.7173 -17.5570 -17.5353 -17.4917 -17.3896
   -17.3630 -17.2629 -17.0510 -17.0301 -17.0225 -16.9935 -16.9326 -16.8602
   -16.8408 -16.8036 -16.7458 -16.7143 -16.6949 -16.6626 -16.5980 -16.5943
   -16.4714 -16.4238 -16.4044 -16.3677 -16.3313 -16.1502 -16.0890 -15.6053
   -15.5445 -11.2128  -6.0534  -5.5023  -5.2882  -5.2083  -5.0997  -4.9991
    -4.9875  -4.9417  -4.8841  -4.7389  -4.6555  -4.6051  -4.5911  -4.5161
    -4.4349  -4.4193  -4.3580  -4.3220  -4.2379  -4.2241  -4.1997  -4.1473
    -4.0365  -4.0290  -3.9841  -3.9138  -3.8977  -3.8917  -3.8891  -3.8293
    -3.7822  -3.7573  -3.7093  -3.6507  -3.6380  -3.5868  -3.5470  -3.5334
    -3.5234  -3.4231  -3.4124  -3.3656  -3.2784  -3.2374  -3.1933  -3.0923
    -2.9272  -2.9022  -2.8571  -2.8085  -2.7511  -2.6992  -2.6776  -2.6660
    -2.6391  -2.5420  -2.4914  -2.4441  -2.3829  -2.3384  -2.2554  -2.2346
    -2.2304  -2.1654  -2.0734  -2.0467  -2.0084  -1.9646  -1.9354  -1.9042
    -1.8587  -1.7431  -1.7000  -1.6742  -1.6459  -1.6359  -1.5921  -1.5101
    -1.4261  -1.3724  -1.3579  -1.3429  -1.3171  -1.2751  -1.2297  -1.1762
    -1.1648  -1.1159  -1.1137  -1.1002  -1.0703  -0.9854  -0.8785  -0.8398
    -0.8136  -0.6984  -0.6923  -0.6294  -0.5575  -0.5159  -0.4882  -0.1918
     1.0211   1.1179   1.4128   1.6912   1.7994   1.9174   1.9648   2.0114
     2.0415   2.1287   2.2053   2.2262   2.2723   2.3912   2.4665   2.4801
     2.4873   2.5144   2.6172   2.6625   2.6675   2.6846   2.7061   2.8229
     2.8378   2.8823   2.8966   2.9504   2.9643   3.0172   3.0254   3.0476
     3.1010   3.1569   3.1950   3.1958   3.2436   3.2514   3.4071   3.4433
     3.4744   3.5164   3.5935   3.6223   3.6655   3.7100   3.8248   3.9522
     4.1002   4.1314   4.3228   4.4686   4.5908   4.7024   4.7803   4.8313
     5.0811   5.1287   5.2072   5.3495   5.3940   5.3992   5.4244   5.4287
     5.4474   5.5183   5.5509   5.6586   5.7147   5.7327   5.9021   5.9196
     5.9514   6.0711   6.0899   6.1323   6.2145   6.2911   6.4187   6.4855
     6.5384   6.5647   6.7793   6.8112   7.2134   7.9157   8.1516   8.1730
     8.3491   8.3872   8.6496   8.7136   8.7495   8.9675   9.1512   9.2533
     9.3114   9.4509   9.6230

          k = 0.0000 0.0280 0.0000 ( 34717 PWs)   bands (ev):

   -58.3074 -58.2770 -57.3899 -57.3843 -57.3552 -57.3163 -57.2636 -57.0950
   -57.0685 -57.0610 -57.0262 -56.9235 -56.9020 -56.8930 -56.8010 -56.7677
   -34.7295 -34.5763 -34.5514 -34.5101 -34.4278 -34.3915 -33.8612 -33.8489
   -33.7355 -33.6769 -33.6350 -33.5958 -33.5730 -33.5555 -33.5475 -33.5392
   -33.5344 -33.5220 -33.5189 -33.5017 -33.4940 -33.4774 -33.4692 -33.4495
   -33.3396 -33.3335 -33.3203 -33.3180 -33.3124 -33.3087 -33.2837 -33.2649
   -33.2509 -33.2428 -33.2408 -33.2304 -33.2066 -33.2051 -33.1527 -33.1385
   -33.1186 -33.0781 -33.0607 -33.0316 -33.0182 -32.9973 -32.9802 -32.9133
   -18.4166 -17.9825 -17.7680 -17.6871 -17.6117 -17.5123 -17.4428 -17.3776
   -17.3318 -17.2935 -17.1020 -17.0100 -17.0010 -16.9828 -16.9341 -16.8819
   -16.8012 -16.7792 -16.7666 -16.7416 -16.7135 -16.6876 -16.6236 -16.5716
   -16.4855 -16.4491 -16.4112 -16.3910 -16.3635 -16.1689 -16.1307 -15.6193
   -15.5699 -11.2137  -5.9680  -5.4182  -5.2089  -5.1378  -5.0301  -4.9681
    -4.9322  -4.9138  -4.8132  -4.7348  -4.6740  -4.6593  -4.5321  -4.5216
    -4.4224  -4.3824  -4.3685  -4.3287  -4.2633  -4.2173  -4.2042  -4.1821
    -4.1051  -4.0726  -4.0224  -4.0056  -3.9836  -3.9765  -3.9273  -3.8590
    -3.8200  -3.7708  -3.7592  -3.7204  -3.6717  -3.6583  -3.5597  -3.4434
    -3.4079  -3.3258  -3.3106  -3.3059  -3.2732  -3.1289  -3.1095  -2.9501
    -2.9087  -2.8877  -2.8079  -2.7542  -2.7497  -2.7264  -2.6940  -2.6569
    -2.6041  -2.5229  -2.4631  -2.4478  -2.4210  -2.2853  -2.2606  -2.2289
    -2.2179  -2.1586  -2.1506  -2.0340  -1.9895  -1.9634  -1.9308  -1.9190
    -1.8800  -1.7727  -1.7634  -1.7248  -1.6862  -1.6171  -1.5876  -1.5775
    -1.5069  -1.4654  -1.3968  -1.3823  -1.3796  -1.3637  -1.2899  -1.2775
    -1.2406  -1.1800  -1.1557  -1.0750  -0.9986  -0.9588  -0.9353  -0.9021
    -0.8815  -0.8454  -0.7347  -0.6044  -0.5782  -0.5644  -0.5443  -0.2329
     1.1538   1.1589   1.4140   1.8275   1.8718   1.8892   1.9218   1.9982
     2.0567   2.0748   2.2956   2.3040   2.3367   2.4539   2.4898   2.5103
     2.5181   2.5401   2.5449   2.5936   2.7105   2.7287   2.7986   2.8095
     2.8316   2.8958   2.9325   2.9605   2.9773   2.9901   3.0114   3.0621
     3.0825   3.1188   3.1718   3.2308   3.2433   3.3238   3.4319   3.4726
     3.5086   3.5393   3.5624   3.5848   3.6396   3.6629   3.7831   3.9044
     4.0545   4.1985   4.2791   4.5219   4.7015   4.7037   4.8104   4.9063
     5.1079   5.1692   5.2524   5.2986   5.3684   5.4080   5.4307   5.4755
     5.5028   5.5379   5.5466   5.6576   5.7012   5.7102   5.8194   5.8799
     5.9430   5.9876   6.0366   6.0473   6.1761   6.2478   6.3845   6.4301
     6.4473   6.5529   6.7237   6.8140   7.3195   7.4500   7.9969   8.0684
     8.3424   8.4957   8.5303   8.7090   8.7850   8.9935   9.1106   9.3112
     9.3711   9.4565   9.5223

          k = 0.0000 0.0560 0.0000 ( 34721 PWs)   bands (ev):

   -58.3010 -58.2834 -57.3865 -57.3791 -57.3616 -57.3185 -57.2628 -57.0945
   -57.0690 -57.0563 -57.0312 -56.9171 -56.9025 -56.8994 -56.7943 -56.7744
   -34.6596 -34.5711 -34.5566 -34.4929 -34.4646 -34.4454 -33.7914 -33.7794
   -33.6848 -33.6600 -33.6183 -33.5961 -33.5953 -33.5895 -33.5748 -33.5714
   -33.5434 -33.5344 -33.5171 -33.4987 -33.4753 -33.4705 -33.4673 -33.4154
   -33.3741 -33.3293 -33.3270 -33.3121 -33.2852 -33.2753 -33.2602 -33.2600
   -33.2585 -33.2506 -33.2475 -33.2291 -33.2205 -33.2143 -33.1703 -33.1381
   -33.1223 -33.0773 -33.0752 -33.0542 -33.0310 -33.0181 -33.0094 -32.9838
   -18.2554 -17.8178 -17.7954 -17.6381 -17.6044 -17.4145 -17.3954 -17.3771
   -17.3123 -17.2695 -17.2350 -17.0492 -16.9953 -16.9255 -16.9214 -16.9046
   -16.8471 -16.8208 -16.7322 -16.7088 -16.7034 -16.6773 -16.6277 -16.5647
   -16.5183 -16.5127 -16.4575 -16.4453 -16.4182 -16.2335 -16.2118 -15.6478
   -15.6236 -11.2155  -5.7286  -5.1853  -5.0494  -4.9932  -4.9602  -4.9363
    -4.8522  -4.8365  -4.8189  -4.7764  -4.7371  -4.5576  -4.5123  -4.4693
    -4.3976  -4.3966  -4.3549  -4.3239  -4.3093  -4.2913  -4.2537  -4.2170
    -4.2126  -4.1954  -4.1340  -4.0623  -4.0180  -3.9793  -3.9688  -3.9123
    -3.8804  -3.8196  -3.7575  -3.6870  -3.6474  -3.5470  -3.4158  -3.4089
    -3.3681  -3.2899  -3.2506  -3.1394  -3.0936  -3.0745  -3.0428  -3.0146
    -2.9716  -2.9612  -2.8301  -2.8005  -2.7434  -2.6996  -2.6541  -2.5618
    -2.4870  -2.4787  -2.4438  -2.3596  -2.3059  -2.3003  -2.2255  -2.1920
    -2.1569  -2.1431  -2.1226  -2.0910  -2.0577  -2.0137  -1.9990  -1.9731
    -1.9373  -1.8951  -1.8855  -1.8645  -1.8187  -1.7562  -1.6613  -1.6109
    -1.5986  -1.5816  -1.5161  -1.4775  -1.4541  -1.4489  -1.4352  -1.3805
    -1.2962  -1.2755  -1.2187  -1.2013  -1.0936  -1.0115  -0.9831  -0.9478
    -0.8633  -0.8401  -0.7409  -0.7196  -0.6244  -0.5860  -0.5682  -0.3362
     1.2827   1.4245   1.4971   1.7183   1.7950   1.8880   1.9587   2.0564
     2.1370   2.2728   2.2779   2.3297   2.4137   2.4827   2.5019   2.5282
     2.5694   2.6084   2.6589   2.7061   2.7495   2.7666   2.7978   2.8464
     2.8618   2.8805   2.8902   2.9603   3.0066   3.0246   3.0336   3.0604
     3.1216   3.1547   3.1780   3.2562   3.3048   3.3363   3.3829   3.4304
     3.4686   3.4840   3.5599   3.6077   3.6712   3.6836   3.7234   3.7990
     3.9214   4.1565   4.3207   4.6491   4.7393   4.8398   4.9315   5.0694
     5.0752   5.1724   5.2792   5.3304   5.3986   5.4338   5.4669   5.4964
     5.4967   5.5590   5.5787   5.6450   5.6499   5.7508   5.7687   5.8106
     5.8509   5.8649   5.8853   5.9274   6.1141   6.1559   6.2946   6.3700
     6.4214   6.4402   6.7179   6.7456   6.9978   7.2168   7.6137   7.7473
     8.2046   8.3806   8.7109   8.8198   8.8388   8.8850   9.1820   9.3542
     9.4264   9.6079   9.7123

          k = 0.0000-0.0840 0.0000 ( 34678 PWs)   bands (ev):

   -58.2929 -58.2915 -57.3849 -57.3727 -57.3684 -57.3197 -57.2624 -57.0943
   -57.0693 -57.0530 -57.0346 -56.9086 -56.9079 -56.9027 -56.7874 -56.7813
   -34.5647 -34.5637 -34.5628 -34.5622 -34.4698 -34.4686 -33.7076 -33.6944
   -33.6907 -33.6521 -33.6508 -33.6450 -33.6133 -33.5971 -33.5931 -33.5824
   -33.5418 -33.5363 -33.5166 -33.5079 -33.4724 -33.4660 -33.4041 -33.3894
   -33.3840 -33.3680 -33.3309 -33.3261 -33.3090 -33.2774 -33.2645 -33.2555
   -33.2541 -33.2536 -33.2290 -33.2275 -33.1796 -33.1538 -33.1529 -33.1457
   -33.1294 -33.1271 -33.1002 -33.0996 -33.0313 -33.0231 -33.0203 -33.0145
   -18.0304 -18.0296 -17.5979 -17.5888 -17.5150 -17.4911 -17.4908 -17.4006
   -17.2636 -17.2236 -17.1363 -17.1104 -17.0779 -17.0432 -16.9021 -16.8503
   -16.8133 -16.8130 -16.8116 -16.6802 -16.6182 -16.6149 -16.6086 -16.5845
   -16.5530 -16.5315 -16.5127 -16.4800 -16.4711 -16.2758 -16.2531 -15.6571
   -15.6571 -11.2164  -5.3891  -5.3888  -4.9367  -4.8929  -4.8919  -4.8794
    -4.8570  -4.7754  -4.7637  -4.7249  -4.6641  -4.6096  -4.5724  -4.5658
    -4.4975  -4.4745  -4.4513  -4.3971  -4.3813  -4.2711  -4.2591  -4.2511
    -4.1638  -4.1215  -4.0718  -4.0372  -3.9986  -3.9069  -3.8883  -3.8726
    -3.7849  -3.7347  -3.6939  -3.6782  -3.6657  -3.6539  -3.6284  -3.4176
    -3.3657  -3.3529  -3.1541  -3.0824  -3.0768  -3.0365  -2.9327  -2.9318
    -2.9227  -2.8550  -2.8318  -2.7967  -2.7791  -2.6987  -2.6744  -2.6495
    -2.5271  -2.5074  -2.4256  -2.4089  -2.4009  -2.3788  -2.3166  -2.2484
    -2.2331  -2.1703  -2.1246  -2.0618  -2.0105  -1.9849  -1.9807  -1.9752
    -1.9707  -1.9469  -1.8467  -1.8039  -1.7833  -1.7333  -1.6972  -1.6623
    -1.6465  -1.6150  -1.5958  -1.5210  -1.5126  -1.4703  -1.4507  -1.4264
    -1.3859  -1.3357  -1.2846  -1.1827  -1.1428  -1.1211  -1.0969  -1.0758
    -0.8435  -0.8193  -0.6223  -0.6133  -0.6079  -0.6002  -0.5509  -0.5027
     1.4789   1.4816   1.6312   1.6319   1.7108   1.7117   2.0819   2.0827
     2.1458   2.2008   2.3717   2.4062   2.4427   2.4889   2.5367   2.5445
     2.6511   2.6628   2.6721   2.6861   2.7383   2.7485   2.8066   2.8090
     2.9089   2.9441   2.9876   3.0154   3.0203   3.0233   3.0298   3.0332
     3.0406   3.2217   3.2310   3.2616   3.2942   3.3363   3.3623   3.3924
     3.4293   3.4444   3.4998   3.6213   3.6934   3.7323   3.7468   3.7891
     3.8422   4.0340   4.3731   4.7534   4.8290   4.8625   4.8632   5.0486
     5.1410   5.2203   5.3112   5.3271   5.3616   5.4047   5.4652   5.5393
     5.5613   5.5931   5.5960   5.6837   5.6965   5.7156   5.7259   5.7393
     5.7655   5.8063   5.8391   5.9402   6.0225   6.1546   6.2856   6.3845
     6.4578   6.4745   6.5898   6.6086   6.9343   6.9854   7.4520   7.6153
     8.0359   8.2447   8.7187   8.9478   9.1343   9.2207   9.3445   9.3460
     9.4559   9.6125   9.7016

          k = 0.0253 0.0000 0.0000 ( 34707 PWs)   bands (ev):

   -58.3097 -58.2747 -57.3913 -57.3863 -57.3528 -57.3152 -57.2639 -57.0952
   -57.0682 -57.0629 -57.0242 -56.9259 -56.9018 -56.8906 -56.8035 -56.7651
   -34.7552 -34.5783 -34.5495 -34.5155 -34.4214 -34.3645 -33.8868 -33.8763
   -33.7565 -33.6753 -33.6411 -33.5985 -33.5693 -33.5595 -33.5554 -33.5468
   -33.5352 -33.5235 -33.4944 -33.4935 -33.4785 -33.4751 -33.4730 -33.4559
   -33.3452 -33.3395 -33.3336 -33.3321 -33.3171 -33.2921 -33.2863 -33.2678
   -33.2516 -33.2405 -33.2402 -33.2308 -33.2033 -33.1805 -33.1450 -33.1445
   -33.1063 -33.0816 -33.0546 -33.0358 -33.0173 -32.9925 -32.9529 -32.8848
   -18.4303 -18.0043 -17.7959 -17.7901 -17.5666 -17.4628 -17.4544 -17.3889
   -17.3675 -17.3267 -17.1121 -17.0438 -17.0197 -16.9869 -16.9352 -16.8975
   -16.8632 -16.8006 -16.7700 -16.7479 -16.6440 -16.6015 -16.5925 -16.5848
   -16.4697 -16.4489 -16.4050 -16.3895 -16.3289 -16.1485 -16.0892 -15.6042
   -15.5443 -11.2127  -5.9286  -5.3959  -5.2200  -5.2050  -5.0794  -5.0302
    -4.9776  -4.9436  -4.8865  -4.7409  -4.7035  -4.5890  -4.5853  -4.5179
    -4.4900  -4.4147  -4.3330  -4.2677  -4.2633  -4.2031  -4.1968  -4.1104
    -4.0350  -4.0024  -3.9952  -3.9209  -3.9050  -3.8634  -3.8537  -3.8040
    -3.7417  -3.7090  -3.6640  -3.6073  -3.5688  -3.5590  -3.5286  -3.5063
    -3.4502  -3.4184  -3.3241  -3.3203  -3.2791  -3.2629  -3.2426  -3.1567
    -3.0178  -2.9080  -2.8434  -2.8233  -2.7772  -2.7483  -2.7046  -2.6758
    -2.6169  -2.5635  -2.5453  -2.5041  -2.4407  -2.3868  -2.3382  -2.2713
    -2.2535  -2.2039  -2.0981  -2.0511  -2.0101  -1.9600  -1.8890  -1.8562
    -1.8324  -1.8044  -1.7183  -1.6304  -1.5844  -1.5760  -1.5507  -1.5146
    -1.4825  -1.4382  -1.4340  -1.3982  -1.3396  -1.3069  -1.2950  -1.2277
    -1.1919  -1.1608  -1.1109  -1.0899  -1.0473  -1.0286  -0.9614  -0.9168
    -0.8397  -0.8329  -0.6757  -0.6488  -0.6115  -0.5940  -0.5625  -0.2513
     1.1037   1.1183   1.4119   1.7788   1.8149   1.9001   1.9264   2.0455
     2.0815   2.1133   2.1998   2.2406   2.3340   2.3792   2.4376   2.5016
     2.5239   2.5924   2.6247   2.6439   2.6742   2.7002   2.8083   2.8224
     2.8431   2.8461   2.8873   2.8963   2.9412   3.0225   3.0716   3.1295
     3.1868   3.1986   3.2118   3.2140   3.2381   3.3057   3.4029   3.4400
     3.4848   3.5402   3.5891   3.6309   3.6954   3.7598   3.7815   3.9055
     4.0489   4.1874   4.2608   4.4216   4.5775   4.6205   4.8057   4.8242
     4.9563   4.9801   5.0832   5.1675   5.3011   5.3127   5.4244   5.5322
     5.5550   5.7055   5.7393   5.9013   5.9095   5.9345   5.9610   5.9840
     6.0199   6.0296   6.0662   6.1662   6.2253   6.2568   6.4368   6.4921
     6.5390   6.6174   6.7370   6.8081   7.2596   7.6753   7.7597   8.0210
     8.2231   8.2995   8.3793   8.6938   8.7557   8.9709   9.1140   9.2156
     9.4240   9.5015   9.7850

          k = 0.0253 0.0280 0.0000 ( 34687 PWs)   bands (ev):

   -58.3074 -58.2770 -57.3896 -57.3846 -57.3552 -57.3163 -57.2636 -57.0949
   -57.0683 -57.0611 -57.0262 -56.9235 -56.9020 -56.8930 -56.8010 -56.7677
   -34.7298 -34.5763 -34.5514 -34.5093 -34.4277 -34.3915 -33.8614 -33.8509
   -33.7356 -33.6693 -33.6349 -33.5959 -33.5701 -33.5558 -33.5526 -33.5426
   -33.5349 -33.5230 -33.5213 -33.5013 -33.4941 -33.4713 -33.4695 -33.4501
   -33.3398 -33.3294 -33.3202 -33.3190 -33.3094 -33.3084 -33.2837 -33.2659
   -33.2552 -33.2422 -33.2408 -33.2320 -33.2063 -33.2050 -33.1509 -33.1385
   -33.1189 -33.0781 -33.0607 -33.0339 -33.0183 -32.9972 -32.9802 -32.9133
   -18.3729 -17.9460 -17.7784 -17.7425 -17.5259 -17.5237 -17.4163 -17.3708
   -17.3540 -17.3223 -17.1165 -17.0735 -17.0042 -16.9730 -16.9238 -16.8802
   -16.8332 -16.8083 -16.7988 -16.7363 -16.6733 -16.6695 -16.6173 -16.5525
   -16.4911 -16.4687 -16.4134 -16.4089 -16.3605 -16.1671 -16.1313 -15.6184
   -15.5700 -11.2136  -5.8436  -5.3124  -5.1469  -5.1313  -4.9962  -4.9642
    -4.9415  -4.9130  -4.8260  -4.7008  -4.6800  -4.6387  -4.5368  -4.5010
    -4.4424  -4.4048  -4.3161  -4.2970  -4.2471  -4.2081  -4.1859  -4.1582
    -4.1298  -4.0979  -4.0352  -3.9999  -3.9576  -3.9443  -3.9018  -3.8262
    -3.7926  -3.7567  -3.7273  -3.6748  -3.6501  -3.6160  -3.5283  -3.4059
    -3.3483  -3.3280  -3.3182  -3.2699  -3.2399  -3.1944  -3.1202  -3.0993
    -2.9326  -2.8978  -2.8435  -2.7825  -2.7537  -2.7144  -2.6822  -2.6435
    -2.6135  -2.5269  -2.5036  -2.4739  -2.4550  -2.3865  -2.3334  -2.3088
    -2.2317  -2.1924  -2.1328  -2.0689  -2.0204  -1.9574  -1.9403  -1.9134
    -1.8467  -1.8359  -1.7774  -1.7527  -1.7003  -1.6163  -1.6022  -1.5576
    -1.5471  -1.4915  -1.4462  -1.4147  -1.3762  -1.3605  -1.3507  -1.3158
    -1.2541  -1.2313  -1.1673  -1.1111  -1.0149  -0.9720  -0.9443  -0.9276
[...]
    -1.7329  -1.5106  -1.4679  -1.4568  -1.4392  -1.4017  -1.3230  -1.1605
    -1.1477  -1.0914  -1.0737  -1.0584  -0.9755  -0.9145  -0.8760  -0.7910
    -0.7375  -0.7306  -0.7018  -0.6741  -0.5996  -0.5774  -0.5638   0.2888
     1.5979   1.6013   1.6139   1.6193   1.9617   1.9626   2.0915   2.0925
     2.2752   2.2961   2.3093   2.3909   2.4142   2.4839   2.5711   2.6300
     2.6519   2.6966   2.7799   2.8134   2.8696   2.9218   2.9441   2.9720
     2.9866   2.9953   3.0364   3.0942   3.1084   3.2056   3.2314   3.2403
     3.2560   3.2802   3.3373   3.3833   3.3972   3.4022   3.4591   3.4699
     3.4802   3.5079   3.5224   3.5754   3.6330   3.6516   3.7732   3.8749
     3.9105   3.9209   4.1366   4.1371   4.5871   4.6162   4.6387   4.7241
     4.8795   4.8952   4.9276   5.0779   5.1574   5.1624   5.1813   5.4413
     5.6703   5.6793   5.6901   5.9227   5.9280   5.9617   6.0132   6.0159
     6.0909   6.1022   6.1722   6.2634   6.2670   6.2757   6.3794   6.4566
     6.4967   6.6034   7.0740   7.2379   7.3397   7.4031   7.5543   7.5926
     7.7194   7.7716   7.9229   8.1154   8.2986   8.3449   8.4527   8.8707
     9.0259   9.0705   9.2169

          k =-0.0253 0.0280 0.0000 ( 34687 PWs)   bands (ev):

   -58.3076 -58.2772 -57.3896 -57.3846 -57.3552 -57.3164 -57.2644 -57.0990
   -57.0696 -57.0624 -57.0274 -56.9269 -56.9243 -56.8938 -56.8047 -56.7713
   -34.7300 -34.5766 -34.5516 -34.5094 -34.4279 -34.3917 -33.8614 -33.8509
   -33.7365 -33.6693 -33.6349 -33.5961 -33.5701 -33.5559 -33.5525 -33.5434
   -33.5357 -33.5230 -33.5213 -33.5013 -33.4950 -33.4720 -33.4711 -33.4525
   -33.3406 -33.3310 -33.3236 -33.3210 -33.3138 -33.3098 -33.2852 -33.2666
   -33.2558 -33.2430 -33.2423 -33.2337 -33.2190 -33.2069 -33.1713 -33.1393
   -33.1378 -33.0815 -33.0615 -33.0414 -33.0225 -33.0006 -32.9811 -32.9161
   -18.3727 -17.9436 -17.7781 -17.7361 -17.5252 -17.5187 -17.3774 -17.3706
   -17.3473 -17.3176 -17.1140 -17.0711 -16.9864 -16.9413 -16.8752 -16.8321
   -16.7942 -16.7526 -16.7350 -16.6716 -16.6649 -16.5851 -16.5457 -16.4874
   -16.4634 -16.4072 -16.3683 -16.3504 -16.1567 -16.1215 -15.8864 -15.6146
   -15.5659 -10.8196  -5.8435  -5.3121  -5.1459  -5.1279  -4.9960  -4.9550
    -4.9161  -4.8271  -4.7008  -4.6800  -4.6388  -4.5387  -4.5006  -4.4441
    -4.4109  -4.3159  -4.2925  -4.2536  -4.2012  -4.1855  -4.1437  -4.1295
    -4.0975  -4.0557  -4.0180  -3.9949  -3.9556  -3.9163  -3.8913  -3.8015
    -3.7850  -3.7265  -3.7007  -3.6262  -3.6054  -3.5701  -3.4979  -3.3940
    -3.3475  -3.3228  -3.2947  -3.2658  -3.2265  -3.1839  -3.1148  -3.0987
    -2.9220  -2.8848  -2.8247  -2.7804  -2.7243  -2.6888  -2.6770  -2.6199
    -2.5898  -2.5115  -2.5022  -2.4449  -2.4120  -2.3609  -2.2906  -2.2683
    -2.2164  -2.1947  -2.1070  -2.0452  -1.9621  -1.9433  -1.9190  -1.8525
    -1.8419  -1.7940  -1.7482  -1.6881  -1.6386  -1.5981  -1.5651  -1.5146
    -1.4795  -1.4383  -1.4097  -1.3842  -1.3636  -1.3486  -1.3175  -1.2937
    -1.2082  -1.1268  -1.0673  -1.0134  -0.9903  -0.9566  -0.9321  -0.8875
    -0.8459  -0.8226  -0.6344  -0.6127  -0.5884  -0.5252  -0.2682   0.3111
     1.1497   1.2434   1.4274   1.8166   1.8562   1.9233   1.9597   2.0271
     2.0381   2.1874   2.2981   2.3439   2.3854   2.4282   2.4518   2.5019
     2.5220   2.5464   2.5872   2.6475   2.6958   2.7198   2.7760   2.8297
     2.8748   2.9115   2.9280   2.9711   2.9886   3.0125   3.0388   3.0913
     3.1685   3.1891   3.2315   3.2568   3.2922   3.3344   3.4275   3.4626
     3.4927   3.5569   3.6100   3.6408   3.6614   3.7420   3.8183   3.8635
     4.0108   4.2069   4.2828   4.4337   4.6225   4.7212   4.8416   4.8588
     4.9995   5.0234   5.1103   5.1959   5.2392   5.3546   5.4585   5.5466
     5.6631   5.6927   5.7153   5.8010   5.8477   5.8809   5.9070   5.9292
     5.9647   5.9876   6.0631   6.1256   6.1730   6.2805   6.3960   6.4466
     6.4600   6.5807   6.7522   6.8083   7.3779   7.4825   7.7971   7.8914
     8.0943   8.2353   8.4885   8.5337   8.7879   8.8944   9.0929   9.3081
     9.3786   9.5455   9.6160

          k =-0.0253 0.0560 0.0000 ( 34699 PWs)   bands (ev):

   -58.3012 -58.2836 -57.3864 -57.3792 -57.3615 -57.3186 -57.2636 -57.0985
   -57.0701 -57.0577 -57.0324 -56.9275 -56.9179 -56.9003 -56.7979 -56.7781
   -34.6601 -34.5713 -34.5569 -34.4925 -34.4649 -34.4453 -33.7916 -33.7817
   -33.6857 -33.6540 -33.6182 -33.5946 -33.5906 -33.5897 -33.5783 -33.5714
   -33.5451 -33.5353 -33.5218 -33.5000 -33.4868 -33.4696 -33.4588 -33.4185
   -33.3754 -33.3285 -33.3248 -33.3163 -33.2872 -33.2776 -33.2617 -33.2612
   -33.2601 -33.2513 -33.2479 -33.2344 -33.2235 -33.2204 -33.1868 -33.1671
   -33.1230 -33.0785 -33.0781 -33.0549 -33.0383 -33.0249 -33.0127 -32.9867
   -18.2149 -17.8050 -17.7833 -17.6146 -17.6032 -17.4591 -17.3965 -17.3728
   -17.2518 -17.2444 -17.2069 -17.0611 -16.9514 -16.9225 -16.8843 -16.8434
   -16.8007 -16.7468 -16.7360 -16.7207 -16.6862 -16.6010 -16.5510 -16.5342
   -16.5031 -16.4445 -16.4139 -16.4097 -16.2179 -16.2029 -15.8852 -15.6433
   -15.6197 -10.8215  -5.6083  -5.0848  -5.0272  -4.9591  -4.9269  -4.8203
    -4.7983  -4.7610  -4.6908  -4.6763  -4.5291  -4.5124  -4.4492  -4.3987
    -4.3807  -4.3724  -4.3238  -4.2803  -4.2532  -4.2433  -4.2095  -4.1773
    -4.1341  -4.1249  -4.0637  -4.0283  -3.9946  -3.9641  -3.9327  -3.8930
    -3.8336  -3.8036  -3.7040  -3.5949  -3.5793  -3.5344  -3.4595  -3.3874
    -3.3665  -3.2932  -3.1907  -3.1634  -3.1249  -3.1147  -3.0620  -3.0272
    -2.9855  -2.9299  -2.8462  -2.7961  -2.7652  -2.7070  -2.6123  -2.5924
    -2.5277  -2.5133  -2.4598  -2.3945  -2.3789  -2.3210  -2.3032  -2.2620
    -2.1905  -2.1386  -2.1242  -2.0922  -2.0516  -2.0097  -1.9881  -1.9516
    -1.9339  -1.9087  -1.8960  -1.8492  -1.7707  -1.7054  -1.6929  -1.5975
    -1.5754  -1.5474  -1.5221  -1.4876  -1.4469  -1.4162  -1.3875  -1.3283
    -1.2927  -1.2256  -1.1579  -1.0371  -1.0078  -0.9730  -0.9404  -0.8603
    -0.7665  -0.7384  -0.7079  -0.6431  -0.6123  -0.5587  -0.3654   0.2925
     1.2840   1.4660   1.5613   1.7553   1.7707   1.9090   1.9758   2.0553
     2.2625   2.2730   2.3397   2.3760   2.4125   2.4846   2.5199   2.5451
     2.5701   2.5934   2.6508   2.7036   2.7183   2.7620   2.8044   2.8540
     2.8799   2.9148   2.9591   3.0045   3.0301   3.0435   3.0535   3.1070
     3.1565   3.1962   3.2155   3.2861   3.3151   3.3435   3.3754   3.4550
     3.5071   3.5320   3.6099   3.6312   3.6656   3.7251   3.7438   3.7977
     3.8935   4.0974   4.3898   4.4981   4.7133   4.8563   4.9074   4.9586
     4.9929   5.0871   5.1844   5.2050   5.3331   5.3851   5.4313   5.5259
     5.5620   5.5968   5.6493   5.7069   5.7363   5.8013   5.8176   5.8580
     5.9250   5.9414   6.0001   6.0877   6.1303   6.2102   6.3264   6.4302
     6.4578   6.4746   6.7176   6.7670   7.0753   7.3005   7.6735   7.8319
     8.0988   8.2340   8.3225   8.4951   8.7806   8.9005   9.0049   9.1955
     9.3841   9.5544   9.6509

          k =-0.0506 0.0280 0.0000 ( 34685 PWs)   bands (ev):

   -58.3076 -58.2772 -57.3887 -57.3854 -57.3552 -57.3164 -57.2644 -57.0990
   -57.0693 -57.0627 -57.0274 -56.9269 -56.9243 -56.8938 -56.8047 -56.7713
   -34.7307 -34.5765 -34.5516 -34.5079 -34.4279 -34.3918 -33.8618 -33.8549
   -33.7367 -33.6497 -33.6347 -33.5962 -33.5752 -33.5577 -33.5565 -33.5487
   -33.5359 -33.5304 -33.5201 -33.5012 -33.4951 -33.4724 -33.4596 -33.4536
   -33.3407 -33.3240 -33.3226 -33.3208 -33.3101 -33.3094 -33.2854 -33.2686
   -33.2658 -33.2424 -33.2420 -33.2365 -33.2192 -33.2063 -33.1674 -33.1392
   -33.1381 -33.0816 -33.0615 -33.0483 -33.0208 -33.0006 -32.9811 -32.9161
   -18.2643 -17.8662 -17.8540 -17.7033 -17.5899 -17.4578 -17.4402 -17.3466
   -17.3193 -17.2529 -17.1826 -17.0886 -16.9990 -16.9538 -16.9250 -16.8971
   -16.8127 -16.7697 -16.7585 -16.6986 -16.6353 -16.5518 -16.5251 -16.4914
   -16.4634 -16.4082 -16.3922 -16.3552 -16.1531 -16.1219 -15.8872 -15.6127
   -15.5660 -10.8194  -5.5422  -5.1895  -5.1563  -5.1233  -4.9516  -4.8719
    -4.7700  -4.7120  -4.6849  -4.6546  -4.6037  -4.5894  -4.5354  -4.4097
    -4.3664  -4.3251  -4.2440  -4.2180  -4.1829  -4.1673  -4.1506  -4.0588
    -4.0451  -4.0152  -3.9771  -3.9343  -3.8901  -3.8413  -3.8181  -3.7928
    -3.7240  -3.6727  -3.6472  -3.5919  -3.5700  -3.5355  -3.4882  -3.4570
    -3.3820  -3.3701  -3.3049  -3.2675  -3.2067  -3.1519  -3.1204  -3.0605
    -3.0120  -2.9830  -2.9040  -2.8380  -2.7607  -2.7011  -2.6917  -2.6690
    -2.6194  -2.5966  -2.5833  -2.5282  -2.5192  -2.3959  -2.3437  -2.3350
    -2.2724  -2.2044  -2.1883  -2.1615  -2.0833  -2.0132  -2.0068  -1.9456
    -1.9267  -1.8968  -1.8131  -1.7247  -1.7115  -1.6876  -1.6181  -1.5888
    -1.5275  -1.4797  -1.4563  -1.3959  -1.3814  -1.3293  -1.3137  -1.2631
    -1.2482  -1.1237  -1.0604  -1.0376  -1.0134  -0.9595  -0.9277  -0.8790
    -0.8307  -0.7990  -0.7239  -0.6843  -0.6630  -0.5389  -0.3941   0.2957
     1.1367   1.3367   1.4618   1.5626   1.9305   1.9406   1.9630   2.0548
     2.1210   2.1958   2.2507   2.3265   2.4030   2.4367   2.5252   2.5428
     2.5892   2.6474   2.6843   2.6980   2.7517   2.8253   2.8481   2.8785
     2.9373   2.9430   2.9764   2.9814   2.9878   3.0987   3.1060   3.1346
     3.1823   3.2114   3.2874   3.3072   3.3522   3.3789   3.4032   3.4517
     3.4660   3.5447   3.5991   3.6641   3.7392   3.7761   3.7960   3.8976
     3.9549   4.0587   4.1059   4.4040   4.5070   4.6529   4.7445   4.8062
     4.8385   4.9106   4.9629   5.2856   5.3262   5.4088   5.5240   5.5564
     5.6374   5.7634   5.7834   5.8503   5.8960   5.9098   5.9691   6.0537
     6.0905   6.1626   6.2470   6.3317   6.3839   6.4013   6.4403   6.4872
     6.5382   6.5488   6.7099   6.9199   7.0766   7.2204   7.5480   7.6118
     7.7253   8.2221   8.4120   8.4888   8.8669   8.9458   9.0668   9.2351
     9.4285   9.6141   9.6777

          k =-0.0506 0.0560 0.0000 ( 34596 PWs)   bands (ev):

   -58.3012 -58.2836 -57.3860 -57.3796 -57.3615 -57.3187 -57.2636 -57.0985
   -57.0700 -57.0578 -57.0324 -56.9275 -56.9179 -56.9003 -56.7980 -56.7781
   -34.6607 -34.5713 -34.5568 -34.4911 -34.4651 -34.4449 -33.7918 -33.7862
   -33.6859 -33.6382 -33.6180 -33.5938 -33.5922 -33.5895 -33.5726 -33.5714
   -33.5484 -33.5355 -33.5339 -33.5002 -33.4960 -33.4697 -33.4472 -33.4201
   -33.3757 -33.3283 -33.3139 -33.3111 -33.2897 -33.2798 -33.2629 -33.2609
   -33.2598 -33.2511 -33.2475 -33.2444 -33.2244 -33.2205 -33.1862 -33.1629
   -33.1230 -33.0786 -33.0781 -33.0548 -33.0425 -33.0255 -33.0127 -32.9865
   -18.1118 -17.8228 -17.7054 -17.6174 -17.6012 -17.5614 -17.3843 -17.3728
   -17.2228 -17.2101 -17.1212 -17.0990 -16.9815 -16.9160 -16.8715 -16.8461
   -16.8275 -16.8114 -16.7653 -16.7397 -16.7248 -16.6315 -16.6006 -16.5103
   -16.5000 -16.4420 -16.4247 -16.4144 -16.2174 -16.1992 -15.8852 -15.6420
   -15.6201 -10.8213  -5.3057  -4.9957  -4.9451  -4.9372  -4.7872  -4.7794
    -4.7205  -4.6435  -4.5305  -4.5104  -4.5046  -4.4219  -4.4073  -4.3847
    -4.3651  -4.3314  -4.3133  -4.2525  -4.2045  -4.1800  -4.1717  -4.1168
    -4.1066  -4.0689  -4.0474  -3.9987  -3.9837  -3.9129  -3.8934  -3.8344
    -3.7860  -3.7158  -3.6837  -3.6166  -3.5893  -3.5611  -3.5012  -3.4360
    -3.3986  -3.3240  -3.2644  -3.2348  -3.1381  -3.1351  -3.0839  -3.0554
    -2.9991  -2.9815  -2.9618  -2.9060  -2.8040  -2.7675  -2.7528  -2.7097
    -2.6337  -2.5913  -2.5493  -2.5067  -2.4821  -2.4181  -2.3932  -2.3735
    -2.3548  -2.2937  -2.1991  -2.1759  -2.1510  -2.1324  -2.1067  -2.0519
    -2.0168  -1.9748  -1.9481  -1.8748  -1.8516  -1.7857  -1.7346  -1.6606
    -1.5697  -1.5526  -1.5427  -1.5002  -1.4465  -1.3890  -1.3569  -1.3101
    -1.2483  -1.1803  -1.0810  -1.0253  -0.9924  -0.9069  -0.8559  -0.8488
    -0.7975  -0.7103  -0.6961  -0.6749  -0.6595  -0.5568  -0.4793   0.2955
     1.3046   1.4943   1.6430   1.6648   1.8494   2.0005   2.0291   2.0643
     2.2401   2.2529   2.3574   2.3734   2.4296   2.4584   2.5451   2.5821
     2.6474   2.6927   2.7265   2.7410   2.8082   2.8391   2.8678   2.9002
     2.9306   2.9477   3.0034   3.0387   3.0693   3.1103   3.1419   3.1874
     3.1924   3.2479   3.2816   3.3216   3.3308   3.3738   3.4133   3.4638
     3.4784   3.5460   3.5748   3.6378   3.6646   3.7423   3.8017   3.8376
     3.8803   3.9574   4.1493   4.5005   4.5933   4.6129   4.7513   4.8188
     4.8854   4.9619   5.0072   5.1834   5.2987   5.3729   5.4081   5.4400
     5.5919   5.6137   5.6648   5.7138   5.8762   5.8936   5.9841   6.0032
     6.0655   6.1055   6.1675   6.2055   6.3135   6.3344   6.4118   6.4206
     6.5382   6.6128   6.7643   6.8054   7.1894   7.3608   7.5067   7.6210
     7.9386   8.0151   8.1038   8.3870   8.6089   8.7228   8.8092   9.0420
     9.2029   9.3302   9.4395

     the Fermi energy is    -0.2946 ev

!    total energy              =   -3021.14947815 Ry
     Harris-Foulkes estimate   =   -3021.14947813 Ry
     estimated scf accuracy    <       0.00000058 Ry

     The total energy is the sum of the following terms:

     one-electron contribution =  -40436.67323709 Ry
     hartree contribution      =   20289.65807326 Ry
     xc contribution           =    -553.22134365 Ry
     ewald contribution        =   17679.10684430 Ry
     smearing contrib. (-TS)   =      -0.01981498 Ry

     total magnetization       =     1.06 Bohr mag/cell
     absolute magnetization    =     1.23 Bohr mag/cell

     convergence has been achieved in  10 iterations

     Forces acting on atoms (Ry/au):


     negative rho (up, down):  1.189E-02 1.196E-02
     atom    1 type  1   force =     0.00018716   -0.00089716   -0.10469650
     atom    2 type  2   force =     0.00014639    0.00068415    0.04004154
     atom    3 type  1   force =     0.00075060   -0.00174927   -0.02054509
     atom    4 type  2   force =    -0.00326354    0.00312658   -0.00323394
     atom    5 type  1   force =     0.00035342    0.00007311    0.00031530
     atom    6 type  2   force =    -0.00013340   -0.00009935    0.00022837
     atom    7 type  1   force =    -0.00015829    0.00005567   -0.00069910
     atom    8 type  2   force =    -0.00009401   -0.00004057   -0.00012526
     atom    9 type  1   force =    -0.00003181    0.00056978   -0.10482981
     atom   10 type  2   force =     0.00034925   -0.00020954    0.03601442
     atom   11 type  1   force =     0.00068304    0.00184074    0.00261819
     atom   12 type  2   force =    -0.00519343   -0.00266700   -0.00519528
     atom   13 type  1   force =     0.00042240    0.00008798   -0.00025548
     atom   14 type  2   force =     0.00012893   -0.00006706   -0.00006509
     atom   15 type  1   force =     0.00006082   -0.00015323    0.00015002
     atom   16 type  2   force =    -0.00014729   -0.00000456   -0.00036971
     atom   17 type  2   force =     0.00001199   -0.00001035    0.06656114
     atom   18 type  1   force =     0.00005998    0.00003190    0.13145886
     atom   19 type  2   force =     0.00018046   -0.00052673   -0.08520723
     atom   20 type  2   force =    -0.05792012    0.00014382   -0.03607523
     atom   21 type  2   force =     0.05781597   -0.00004576   -0.03603597
     atom   22 type  1   force =    -0.00042789    0.00074995    0.08017054
     atom   23 type  2   force =     0.00020188   -0.00004854    0.00003386
     atom   24 type  2   force =     0.00064055    0.00186126   -0.03467832
     atom   25 type  2   force =     0.00413894    0.00332863   -0.00509674
     atom   26 type  1   force =     0.00040629   -0.00004502    0.00010826
     atom   27 type  2   force =    -0.00008895   -0.00012943   -0.00001581
     atom   28 type  2   force =     0.00006570   -0.00019541   -0.00003300
     atom   29 type  2   force =    -0.00000466   -0.00007349    0.00005915
     atom   30 type  1   force =    -0.00037009   -0.00026437    0.00025897
     atom   31 type  2   force =     0.00014170   -0.00010186   -0.00007138
     atom   32 type  2   force =    -0.00017878    0.00002373    0.00004756
     atom   33 type  2   force =    -0.00016482    0.00005125    0.06629631
     atom   34 type  1   force =     0.00007878   -0.00002937    0.13123908
     atom   35 type  2   force =     0.00019002   -0.00012700   -0.08481669
     atom   36 type  2   force =    -0.05781599    0.00006847   -0.03568938
     atom   37 type  2   force =     0.05798957   -0.00017202   -0.03608374
     atom   38 type  1   force =    -0.00037509   -0.00020281    0.07984163
     atom   39 type  2   force =     0.00008080   -0.00026099   -0.00009308
     atom   40 type  2   force =     0.00049098    0.00124500   -0.03528238
     atom   41 type  2   force =     0.00588960   -0.00243108   -0.00722450
     atom   42 type  1   force =     0.00024053   -0.00006867    0.00004465
     atom   43 type  2   force =    -0.00018646   -0.00009148   -0.00002358
     atom   44 type  2   force =     0.00001334   -0.00015491   -0.00003850
     atom   45 type  2   force =    -0.00000249   -0.00016469    0.00004721
     atom   46 type  1   force =    -0.00028250    0.00004073    0.00026644
     atom   47 type  2   force =    -0.00011338   -0.00017056    0.00006228
     atom   48 type  2   force =    -0.00019235   -0.00009148    0.00028545
     atom   49 type  2   force =    -0.00061497   -0.00086880   -0.00028945
     atom   50 type  3   force =    -0.01162746   -0.01298419    0.01559250
     atom   51 type  4   force =     0.01098986    0.01299502   -0.01711147
     atom   52 type  4   force =    -0.00197508   -0.00151260    0.00123852
     atom   53 type  4   force =     0.00005861    0.00075741    0.00054121
     atom   54 type  4   force =    -0.00140470   -0.00107584    0.00036029

     Total force =     0.343938     Total SCF correction =     0.001236
 !ASE

     Writing output data file calc.save
 
     init_run     :     65.48s CPU     81.17s WALL (       1 calls)
     electrons    :   2774.81s CPU   3182.49s WALL (       1 calls)
     forces       :     49.07s CPU     50.77s WALL (       1 calls)

     Called by init_run:
     wfcinit      :     57.37s CPU     71.67s WALL (       1 calls)
     potinit      :      1.35s CPU      2.29s WALL (       1 calls)

     Called by electrons:
     c_bands      :   2460.72s CPU   2813.28s WALL (      10 calls)
     sum_band     :    269.07s CPU    319.18s WALL (      10 calls)
     v_of_rho     :     11.41s CPU     13.66s WALL (      11 calls)
     newd         :     37.21s CPU     40.23s WALL (      11 calls)
     mix_rho      :      0.41s CPU      0.55s WALL (      10 calls)
     vdW_energy   :      2.51s CPU      2.86s WALL (      12 calls)
     vdW_ffts     :      2.98s CPU      3.70s WALL (      24 calls)
     vdW_v        :      1.25s CPU      1.39s WALL (      12 calls)

     Called by c_bands:
     init_us_2    :      6.25s CPU      6.66s WALL (     880 calls)
     cegterg      :   2419.99s CPU   2770.70s WALL (     400 calls)

     Called by *egterg:
     h_psi        :    883.33s CPU   1151.85s WALL (    2258 calls)
     s_psi        :    154.34s CPU    160.12s WALL (    2258 calls)
     g_psi        :      4.51s CPU      4.63s WALL (    1818 calls)
     cdiaghg      :    854.51s CPU    875.15s WALL (    2218 calls)

     Called by h_psi:
     add_vuspsi   :    156.03s CPU    161.63s WALL (    2258 calls)

     General routines
     calbec       :    228.20s CPU    233.87s WALL (    2698 calls)
     fft          :      6.54s CPU      7.94s WALL (     948 calls)
     ffts         :      0.04s CPU      0.06s WALL (      42 calls)
     fftw         :    482.49s CPU    782.57s WALL (  723154 calls)
     interpolate  :      0.32s CPU      0.51s WALL (      42 calls)
     davcio       :      0.11s CPU      2.44s WALL (      40 calls)
 
     Parallel routines
     fft_scatter  :    237.50s CPU    402.69s WALL (  724144 calls)
 
     PWSCF        : 48m10.60s CPU    55m18.65s WALL

 
   This run was terminated on:  12: 8:33  26Feb2018            

=------------------------------------------------------------------------------=
   JOB DONE.
=------------------------------------------------------------------------------=
