  python dir          : /home/vossj/suncat/lib/python2.7/site-packages/espresso
  espresso dir        : /home/vossj/suncat/esdld/espresso-dynpy-beef/bin
  pseudo dir          : /home/alatimer/bin/psp/esp_psp_w_gbrvRu/
  ase-espresso py git : ffa2778-git



     Program PWSCF v.5.1rc2 (svn rev. ) starts on 26Feb2018 at  8:21:57 

     This program is part of the open-source Quantum ESPRESSO suite
     for quantum simulation of materials; please cite
         "P. Giannozzi et al., J. Phys.:Condens. Matter 21 395502 (2009);
          URL http://www.quantum-espresso.org", 
     in publications or presentations arising from this work. More details at
     http://www.quantum-espresso.org/quote

     Parallel version (MPI), running on    16 processors
     R & G space division:  proc/nbgrp/npool/nimage =      16
     Reading input from pw.inp
     Message from routine read_cards :
     DEPRECATED: no units specified in CELL_PARAMETERS card

     Current dimensions of program PWSCF are:
     Max number of different atomic species (ntypx) = 10
     Max number of k-points (npk) =  40000
     Max angular momentum in pseudopotentials (lmaxx) =  3

     **************************************************************************
     Initializing libbeef V0.1.1 with the BEEF-vdW functional.
     Citation: Wellendorff et al., PRB 85, 235149 (2012).
     **************************************************************************


     IMPORTANT: XC functional enforced from input :
     Exchange-correlation      = BEEF ( 1  4 27 13 2)
     Any further DFT definition will be discarded
     Please, verify this is what you really want


     Subspace diagonalization in iterative solution of the eigenvalue problem:
     a serial algorithm will be used

 
     Parallelization info
     --------------------
     sticks:   dense  smooth     PW     G-vecs:    dense   smooth      PW
     Min         281     112     31                68535    17318    2565
     Max         282     113     32                68545    17369    2582
     Sum        4501    1795    503              1096637   277353   41113
 
     Generating pointlists ...
     new r_m :   0.4125 (alat units)  0.7795 (a.u.) for type    1
     new r_m :   0.4125 (alat units)  0.7795 (a.u.) for type    2
     new r_m :   0.4125 (alat units)  0.7795 (a.u.) for type    3
     new r_m :   0.4125 (alat units)  0.7795 (a.u.) for type    4


     bravais-lattice index     =            0
     lattice parameter (alat)  =       1.8897  a.u.
     unit-cell volume          =    7990.9933 (a.u.)^3
     number of atoms/cell      =           54
     number of atomic types    =            4
     number of electrons       =       398.00
     number of Kohn-Sham states=          299
     kinetic-energy cutoff     =      40.4243  Ry
     charge density cutoff     =     404.2426  Ry
     convergence threshold     =      7.3E-07
     mixing beta               =       0.1000
     number of iterations used =           10  plain     mixing
     Exchange-correlation      = BEEF ( 1  4 27 13 2)
     nstep                     =           50


     celldm(1)=   1.889726  celldm(2)=   0.000000  celldm(3)=   0.000000
     celldm(4)=   0.000000  celldm(5)=   0.000000  celldm(6)=   0.000000

     crystal axes: (cart. coord. in units of alat)
               a(1) = (   6.590708   0.000000   0.000000 )  
               a(2) = (   0.000000   5.950229   0.000000 )  
               a(3) = (   0.000000   0.000000  30.195235 )  

     reciprocal axes: (cart. coord. in units 2 pi/alat)
               b(1) = (  0.151729  0.000000  0.000000 )  
               b(2) = (  0.000000  0.168061  0.000000 )  
               b(3) = (  0.000000  0.000000  0.033118 )  


     PseudoPot. # 1 for Ti read from file:
     /home/alatimer/bin/psp/esp_psp_w_gbrvRu/Ti.UPF
     MD5 check sum: 8e4df49b7f0d34bbd5052bf3f5ea0213
     Pseudo is Ultrasoft, Zval = 12.0
     Generated by new atomic code, or converted to UPF format
     Using radial grid of  851 points,  6 beta functions with: 
                l(1) =   0
                l(2) =   0
                l(3) =   1
                l(4) =   1
                l(5) =   2
                l(6) =   2
     Q(r) pseudized with  8 coefficients,  rinner =    1.000   1.000   1.000
                                                       1.000   1.000

     PseudoPot. # 2 for  O read from file:
     /home/alatimer/bin/psp/esp_psp_w_gbrvRu/O.UPF
     MD5 check sum: e057bbcf3229fb5d8c36c0c92f9568b4
     Pseudo is Ultrasoft + core correction, Zval =  6.0
     Generated using "atomic" code by A. Dal Corso  v.5.0.2 svn rev. 9415
     Using radial grid of 1095 points,  4 beta functions with: 
                l(1) =   0
                l(2) =   0
                l(3) =   1
                l(4) =   1
     Q(r) pseudized with 0 coefficients 


     PseudoPot. # 3 for  C read from file:
     /home/alatimer/bin/psp/esp_psp_w_gbrvRu/C.UPF
     MD5 check sum: ab446d787031eba755f1d5ee46644bb0
     Pseudo is Ultrasoft + core correction, Zval =  4.0
     Generated using "atomic" code by A. Dal Corso  v.5.0.2 svn rev. 9415
     Using radial grid of 1073 points,  4 beta functions with: 
                l(1) =   0
                l(2) =   0
                l(3) =   1
                l(4) =   1
     Q(r) pseudized with 0 coefficients 


     PseudoPot. # 4 for  H read from file:
     /home/alatimer/bin/psp/esp_psp_w_gbrvRu/H.UPF
     MD5 check sum: bd57da0722753ddfd9833a65b40bb853
     Pseudo is Ultrasoft, Zval =  1.0
     Generated using "atomic" code by A. Dal Corso  v.5.0.2 svn rev. 9415
     Using radial grid of  929 points,  2 beta functions with: 
                l(1) =   0
                l(2) =   0
     Q(r) pseudized with 0 coefficients 


     vdW kernel table read from file vdW_kernel_table
     MD5 check sum: 095c7af220d748ca6e76c0b4c6cfb241

     atomic species   valence    mass     pseudopotential
        Ti1           12.00    47.88000     Ti( 1.00)
        O1             6.00    15.99940      O( 1.00)
        C1             4.00    12.01100      C( 1.00)
        H1             1.00     1.00794      H( 1.00)

     Starting magnetic structure 
     atomic species   magnetization
        Ti1          0.250
        O1           0.500
        C1           0.750
        H1           0.000

     No symmetry found



   Cartesian axes

     site n.     atom                  positions (alat units)
         1           Ti1 tau(   1) = (   1.6476770   0.7437786   2.6545865  )
         2           O1  tau(   2) = (   1.6476770   2.2313359   3.9361215  )
         3           Ti1 tau(   3) = (   1.6476770   2.2313359   5.9499405  )
         4           O1  tau(   4) = (   0.3661420   0.7437786   5.9499405  )
         5           Ti1 tau(   5) = (   1.6407309   0.9134410   9.3139491  )
         6           O1  tau(   6) = (   1.6648823   2.2608486  10.4895904  )
         7           Ti1 tau(   7) = (   1.7578240   2.2899216  13.0472362  )
         8           O1  tau(   8) = (   0.4801583   0.7600008  12.7739736  )
         9           Ti1 tau(   9) = (   1.6476770   3.7188931   2.6545865  )
        10           O1  tau(  10) = (   1.6476770   5.2064503   3.9361215  )
        11           Ti1 tau(  11) = (   1.6476770   5.2064503   5.9499405  )
        12           O1  tau(  12) = (   0.3661420   3.7188931   5.9499405  )
        13           Ti1 tau(  13) = (   1.6336050   3.7786827   9.1566831  )
        14           O1  tau(  14) = (   1.6678212   5.2513959  10.5409436  )
        15           Ti1 tau(  15) = (   1.7144009   5.2558216  12.3462911  )
        16           O1  tau(  16) = (   0.4635505   3.7986228  12.7318280  )
        17           O1  tau(  17) = (   1.6476770   2.2313359   1.3730516  )
        18           Ti1 tau(  18) = (   4.9430310   2.2313359   2.6545865  )
        19           O1  tau(  19) = (   4.9430310   2.2313359   4.6684056  )
        20           O1  tau(  20) = (   6.2245660   0.7437786   2.6545865  )
        21           O1  tau(  21) = (   3.6614961   0.7437786   2.6545865  )
        22           Ti1 tau(  22) = (   4.9430310   0.7437786   5.9499405  )
        23           O1  tau(  23) = (   1.6683653   2.2752577   7.9427336  )
        24           O1  tau(  24) = (   4.9430310   2.2313359   7.2314755  )
        25           O1  tau(  25) = (   2.9292120   0.7437786   5.9499405  )
        26           Ti1 tau(  26) = (   4.9404121   2.2664794   9.4552217  )
        27           O1  tau(  27) = (   5.0099888   2.2616732  11.2946145  )
        28           O1  tau(  28) = (   6.2612001   0.7714827   9.2659748  )
        29           O1  tau(  29) = (   3.6791272   0.7744986   9.2965846  )
        30           Ti1 tau(  30) = (   5.0117873   0.7976728  12.8161605  )
        31           O1  tau(  31) = (   4.9963122   2.2836652  13.8750618  )
        32           O1  tau(  32) = (   2.9819382   0.7448324  12.7109220  )
        33           O1  tau(  33) = (   1.6476770   5.2064503   1.3730516  )
        34           Ti1 tau(  34) = (   4.9430310   5.2064503   2.6545865  )
        35           O1  tau(  35) = (   4.9430310   5.2064503   4.6684056  )
        36           O1  tau(  36) = (   6.2245660   3.7188931   2.6545865  )
        37           O1  tau(  37) = (   3.6614961   3.7188931   2.6545865  )
        38           Ti1 tau(  38) = (   4.9430310   3.7188931   5.9499405  )
        39           O1  tau(  39) = (   1.6664207   5.2035600   7.9365221  )
        40           O1  tau(  40) = (   4.9430310   5.2064503   7.2314755  )
        41           O1  tau(  41) = (   2.9292120   3.7188931   5.9499405  )
        42           Ti1 tau(  42) = (   4.9524353   5.2460635   9.4426343  )
        43           O1  tau(  43) = (   5.0107556   5.2394944  11.2927493  )
        44           O1  tau(  44) = (   6.2663940   3.7551737   9.2646230  )
        45           O1  tau(  45) = (   3.6780957   3.7542261   9.2971476  )
        46           Ti1 tau(  46) = (   5.0587989   3.7766986  12.8010349  )
        47           O1  tau(  47) = (   5.0196089   5.2502198  13.8813978  )
        48           O1  tau(  48) = (   2.9624133   3.7943242  12.7299881  )
        49           O1  tau(  49) = (   1.7427453   2.2533568  14.8370015  )
        50           C1  tau(  50) = (   2.7196098   4.2826273  16.2318421  )
        51           H1  tau(  51) = (   3.3037454   4.8955546  15.5827400  )
        52           H1  tau(  52) = (   3.3286606   3.7870117  16.9822022  )
        53           H1  tau(  53) = (   2.3125587   3.4026405  15.5729816  )
        54           H1  tau(  54) = (   1.8391288   4.7650601  16.6448379  )

     number of k points=    40  Fermi-Dirac smearing, width (Ry)=  0.0073
                       cart. coord. in units 2pi/alat
        k(    1) = (   0.0000000   0.0000000   0.0000000), wk =   0.0277778
        k(    2) = (   0.0000000   0.0280101   0.0000000), wk =   0.0555556
        k(    3) = (   0.0000000   0.0560203   0.0000000), wk =   0.0555556
        k(    4) = (   0.0000000  -0.0840304   0.0000000), wk =   0.0277778
        k(    5) = (   0.0252881   0.0000000   0.0000000), wk =   0.0555556
        k(    6) = (   0.0252881   0.0280101   0.0000000), wk =   0.0555556
        k(    7) = (   0.0252881   0.0560203   0.0000000), wk =   0.0555556
        k(    8) = (   0.0252881  -0.0840304   0.0000000), wk =   0.0555556
        k(    9) = (   0.0505763   0.0000000   0.0000000), wk =   0.0555556
        k(   10) = (   0.0505763   0.0280101   0.0000000), wk =   0.0555556
        k(   11) = (   0.0505763   0.0560203   0.0000000), wk =   0.0555556
        k(   12) = (   0.0505763  -0.0840304   0.0000000), wk =   0.0555556
        k(   13) = (  -0.0758644   0.0000000   0.0000000), wk =   0.0277778
        k(   14) = (  -0.0758644   0.0280101   0.0000000), wk =   0.0555556
        k(   15) = (  -0.0758644   0.0560203   0.0000000), wk =   0.0555556
        k(   16) = (  -0.0758644  -0.0840304   0.0000000), wk =   0.0277778
        k(   17) = (  -0.0252881   0.0280101   0.0000000), wk =   0.0555556
        k(   18) = (  -0.0252881   0.0560203   0.0000000), wk =   0.0555556
        k(   19) = (  -0.0505763   0.0280101   0.0000000), wk =   0.0555556
        k(   20) = (  -0.0505763   0.0560203   0.0000000), wk =   0.0555556
        k(   21) = (   0.0000000   0.0000000   0.0000000), wk =   0.0277778
        k(   22) = (   0.0000000   0.0280101   0.0000000), wk =   0.0555556
        k(   23) = (   0.0000000   0.0560203   0.0000000), wk =   0.0555556
        k(   24) = (   0.0000000  -0.0840304   0.0000000), wk =   0.0277778
        k(   25) = (   0.0252881   0.0000000   0.0000000), wk =   0.0555556
        k(   26) = (   0.0252881   0.0280101   0.0000000), wk =   0.0555556
        k(   27) = (   0.0252881   0.0560203   0.0000000), wk =   0.0555556
        k(   28) = (   0.0252881  -0.0840304   0.0000000), wk =   0.0555556
        k(   29) = (   0.0505763   0.0000000   0.0000000), wk =   0.0555556
        k(   30) = (   0.0505763   0.0280101   0.0000000), wk =   0.0555556
        k(   31) = (   0.0505763   0.0560203   0.0000000), wk =   0.0555556
        k(   32) = (   0.0505763  -0.0840304   0.0000000), wk =   0.0555556
        k(   33) = (  -0.0758644   0.0000000   0.0000000), wk =   0.0277778
        k(   34) = (  -0.0758644   0.0280101   0.0000000), wk =   0.0555556
        k(   35) = (  -0.0758644   0.0560203   0.0000000), wk =   0.0555556
        k(   36) = (  -0.0758644  -0.0840304   0.0000000), wk =   0.0277778
        k(   37) = (  -0.0252881   0.0280101   0.0000000), wk =   0.0555556
        k(   38) = (  -0.0252881   0.0560203   0.0000000), wk =   0.0555556
        k(   39) = (  -0.0505763   0.0280101   0.0000000), wk =   0.0555556
        k(   40) = (  -0.0505763   0.0560203   0.0000000), wk =   0.0555556

     Dense  grid:  1096637 G-vectors     FFT dimensions: (  80,  72, 375)

     Smooth grid:   277353 G-vectors     FFT dimensions: (  54,  45, 240)

     Largest allocated arrays     est. size (Mb)     dimensions
        Kohn-Sham Wavefunctions         9.95 Mb     (    2180,  299)
        NL pseudopotentials            18.89 Mb     (    2180,  568)
        Each V/rho on FFT grid          4.22 Mb     (  138240,   2)
        Each G-vector array             0.52 Mb     (   68538)
        G-vector shells                 0.25 Mb     (   33046)
     Largest temporary arrays     est. size (Mb)     dimensions
        Auxiliary wavefunctions        39.78 Mb     (    2180, 1196)
        Each subspace H/S matrix       21.83 Mb     (    1196, 1196)
        Each <psi_i|beta_j> matrix      2.59 Mb     (     568,  299)
        Arrays for rho mixing          21.09 Mb     (  138240,   10)

     Check: negative/imaginary core charge=   -0.000049    0.000000

     The initial density is read from file :
     ./calc.save/charge-density.dat


     negative rho (up, down):  1.189E-02 1.196E-02


     ************************************************************************
     *
     * You are using vdW-DF for exchange-correlation in this calculation.
     * Please cite the following three references that made this development
     * possible:
     *
     *   M. Dion, H. Rydberg, E. Schroder, D. C. Langreth, and
     *   B. I. Lundqvist, Phys. Rev. Lett. 92, 246401 (2004).
     *
     *   T. Thonhauser, V. R. Cooper, S. Li, A. Puzder, P. Hyldgaard, and
     *   D. C. Langreth, Phys. Rev. B 76, 125112 (2007).
     *
     *   G. Roman-Perez and J. M. Soler, Phys. Rev. Lett. 103, 096102 (2009).
     *
     *
     * If you are using vdW-DF2, please also cite:
     *
     *   K. Lee, E. D. Murray, L. Kong, B. I. Lundqvist, and
     *   D. C. Langreth, Phys. Rev. B 82, 081101(R) (2010).
     *
     *
     * If you are calculating the stress with vdW-DF, please also cite:
     *
     *   R. Sabatini, E. Kucukbenli, B. Kolb, T. Thonhauser, and
     *   S. de Gironcoli, J. Phys.: Condens. Matter 24, 424209 (2012).
     *
     ************************************************************************

     Carrying out vdW-DF run using the following parameters:

     Nqs =      20    Nr_points =    1024   r_max =   100.000
     q_mesh =
               0.00001000     0.04494208     0.09755937     0.15916263
               0.23128650     0.31572767     0.41458969     0.53033537
               0.66584808     0.82450364     1.01025438     1.22772762
               1.48234092     1.78043706     2.12944203     2.53805004
               3.01644009     3.57652955     4.23227104     5.00000000

     Gradients computed in reciprocal space

     ************************************************************************


     Starting wfc are  300 randomized atomic wfcs

     total cpu time spent up to now is       77.6 secs

     Self-consistent Calculation

     iteration #  1     ecut=    40.42 Ry     beta=0.10
     Davidson diagonalization with overlap
     ethr =  1.00E-05,  avg # of iterations = 14.9

     Threshold (ethr) on eigenvalues was too large:
     Diagonalizing with lowered threshold

     Davidson diagonalization with overlap
     ethr =  5.32E-07,  avg # of iterations =  1.0

     negative rho (up, down):  1.189E-02 1.196E-02
 
     Magnetic moment per site:
     atom:    1    charge:    3.1244    magn:   -0.0003    constr:    0.0000
     atom:    2    charge:    2.0897    magn:    0.0003    constr:    0.0000
     atom:    3    charge:    3.1198    magn:   -0.0000    constr:    0.0000
     atom:    4    charge:    2.0867    magn:   -0.0001    constr:    0.0000
     atom:    5    charge:    3.1161    magn:   -0.0002    constr:    0.0000
     atom:    6    charge:    2.0795    magn:    0.0021    constr:    0.0000
     atom:    7    charge:    3.1167    magn:   -0.0053    constr:    0.0000
     atom:    8    charge:    2.0792    magn:    0.0250    constr:    0.0000
     atom:    9    charge:    3.1244    magn:   -0.0003    constr:    0.0000
     atom:   10    charge:    2.0898    magn:    0.0003    constr:    0.0000
     atom:   11    charge:    3.1198    magn:   -0.0000    constr:    0.0000
     atom:   12    charge:    2.0870    magn:   -0.0000    constr:    0.0000
     atom:   13    charge:    3.1150    magn:   -0.0002    constr:    0.0000
     atom:   14    charge:    2.0939    magn:    0.0023    constr:    0.0000
     atom:   15    charge:    3.1184    magn:   -0.0008    constr:    0.0000
     atom:   16    charge:    2.0829    magn:    0.0046    constr:    0.0000
     atom:   17    charge:    2.0624    magn:    0.0018    constr:    0.0000
     atom:   18    charge:    3.1239    magn:   -0.0001    constr:    0.0000
     atom:   19    charge:    2.0875    magn:    0.0001    constr:    0.0000
     atom:   20    charge:    2.0847    magn:    0.0002    constr:    0.0000
     atom:   21    charge:    2.0847    magn:    0.0002    constr:    0.0000
     atom:   22    charge:    3.1199    magn:    0.0000    constr:    0.0000
     atom:   23    charge:    2.0908    magn:    0.0002    constr:    0.0000
     atom:   24    charge:    2.0754    magn:   -0.0002    constr:    0.0000
     atom:   25    charge:    2.0867    magn:    0.0000    constr:    0.0000
     atom:   26    charge:    3.1127    magn:   -0.0002    constr:    0.0000
     atom:   27    charge:    2.0803    magn:    0.0025    constr:    0.0000
     atom:   28    charge:    2.0839    magn:    0.0006    constr:    0.0000
     atom:   29    charge:    2.0860    magn:    0.0008    constr:    0.0000
     atom:   30    charge:    3.1171    magn:   -0.0008    constr:    0.0000
     atom:   31    charge:    2.0826    magn:    0.0006    constr:    0.0000
     atom:   32    charge:    2.0829    magn:    0.0064    constr:    0.0000
     atom:   33    charge:    2.0624    magn:    0.0018    constr:    0.0000
     atom:   34    charge:    3.1239    magn:   -0.0001    constr:    0.0000
     atom:   35    charge:    2.0875    magn:    0.0001    constr:    0.0000
     atom:   36    charge:    2.0847    magn:    0.0002    constr:    0.0000
     atom:   37    charge:    2.0847    magn:    0.0002    constr:    0.0000
     atom:   38    charge:    3.1200    magn:    0.0000    constr:    0.0000
     atom:   39    charge:    2.0839    magn:    0.0002    constr:    0.0000
     atom:   40    charge:    2.0756    magn:   -0.0003    constr:    0.0000
     atom:   41    charge:    2.0870    magn:   -0.0000    constr:    0.0000
     atom:   42    charge:    3.1151    magn:   -0.0002    constr:    0.0000
     atom:   43    charge:    2.0803    magn:    0.0030    constr:    0.0000
     atom:   44    charge:    2.0851    magn:    0.0008    constr:    0.0000
     atom:   45    charge:    2.0858    magn:    0.0004    constr:    0.0000
     atom:   46    charge:    3.1148    magn:   -0.0007    constr:    0.0000
     atom:   47    charge:    2.0806    magn:    0.0047    constr:    0.0000
     atom:   48    charge:    2.0837    magn:    0.0137    constr:    0.0000
     atom:   49    charge:    2.0517    magn:    0.2398    constr:    0.0000
     atom:   50    charge:    0.6723    magn:    0.0547    constr:    0.0000
     atom:   51    charge:    0.4313    magn:    0.0008    constr:    0.0000
     atom:   52    charge:    0.4227    magn:    0.0008    constr:    0.0000
     atom:   53    charge:    0.3676    magn:    0.0231    constr:    0.0000
     atom:   54    charge:    0.4229    magn:    0.0006    constr:    0.0000

     total cpu time spent up to now is     1249.6 secs

     total energy              =   -3021.14974625 Ry
     Harris-Foulkes estimate   =   -3021.14997718 Ry
     estimated scf accuracy    <       0.00211758 Ry

     total magnetization       =     1.06 Bohr mag/cell
     absolute magnetization    =     1.23 Bohr mag/cell

     iteration #  2     ecut=    40.42 Ry     beta=0.10
     Davidson diagonalization with overlap
     ethr =  5.32E-07,  avg # of iterations =  2.0

     negative rho (up, down):  1.189E-02 1.196E-02
 
     Magnetic moment per site:
     atom:    1    charge:    3.1244    magn:   -0.0003    constr:    0.0000
     atom:    2    charge:    2.0897    magn:    0.0003    constr:    0.0000
     atom:    3    charge:    3.1198    magn:   -0.0000    constr:    0.0000
     atom:    4    charge:    2.0867    magn:   -0.0001    constr:    0.0000
     atom:    5    charge:    3.1161    magn:   -0.0002    constr:    0.0000
     atom:    6    charge:    2.0795    magn:    0.0021    constr:    0.0000
     atom:    7    charge:    3.1167    magn:   -0.0053    constr:    0.0000
     atom:    8    charge:    2.0792    magn:    0.0250    constr:    0.0000
     atom:    9    charge:    3.1244    magn:   -0.0003    constr:    0.0000
     atom:   10    charge:    2.0899    magn:    0.0003    constr:    0.0000
     atom:   11    charge:    3.1198    magn:   -0.0000    constr:    0.0000
     atom:   12    charge:    2.0871    magn:   -0.0000    constr:    0.0000
     atom:   13    charge:    3.1150    magn:   -0.0002    constr:    0.0000
     atom:   14    charge:    2.0939    magn:    0.0023    constr:    0.0000
     atom:   15    charge:    3.1184    magn:   -0.0008    constr:    0.0000
     atom:   16    charge:    2.0828    magn:    0.0046    constr:    0.0000
     atom:   17    charge:    2.0625    magn:    0.0017    constr:    0.0000
     atom:   18    charge:    3.1239    magn:   -0.0001    constr:    0.0000
     atom:   19    charge:    2.0875    magn:    0.0001    constr:    0.0000
     atom:   20    charge:    2.0847    magn:    0.0002    constr:    0.0000
     atom:   21    charge:    2.0847    magn:    0.0002    constr:    0.0000
     atom:   22    charge:    3.1199    magn:    0.0000    constr:    0.0000
     atom:   23    charge:    2.0908    magn:    0.0002    constr:    0.0000
     atom:   24    charge:    2.0754    magn:   -0.0002    constr:    0.0000
     atom:   25    charge:    2.0867    magn:    0.0000    constr:    0.0000
     atom:   26    charge:    3.1127    magn:   -0.0002    constr:    0.0000
     atom:   27    charge:    2.0802    magn:    0.0025    constr:    0.0000
     atom:   28    charge:    2.0839    magn:    0.0006    constr:    0.0000
     atom:   29    charge:    2.0860    magn:    0.0008    constr:    0.0000
     atom:   30    charge:    3.1171    magn:   -0.0008    constr:    0.0000
     atom:   31    charge:    2.0826    magn:    0.0006    constr:    0.0000
     atom:   32    charge:    2.0828    magn:    0.0065    constr:    0.0000
     atom:   33    charge:    2.0625    magn:    0.0018    constr:    0.0000
     atom:   34    charge:    3.1239    magn:   -0.0001    constr:    0.0000
     atom:   35    charge:    2.0876    magn:    0.0001    constr:    0.0000
     atom:   36    charge:    2.0847    magn:    0.0002    constr:    0.0000
     atom:   37    charge:    2.0847    magn:    0.0002    constr:    0.0000
     atom:   38    charge:    3.1200    magn:    0.0000    constr:    0.0000
     atom:   39    charge:    2.0839    magn:    0.0002    constr:    0.0000
     atom:   40    charge:    2.0756    magn:   -0.0003    constr:    0.0000
     atom:   41    charge:    2.0870    magn:   -0.0000    constr:    0.0000
     atom:   42    charge:    3.1151    magn:   -0.0002    constr:    0.0000
     atom:   43    charge:    2.0802    magn:    0.0030    constr:    0.0000
     atom:   44    charge:    2.0851    magn:    0.0008    constr:    0.0000
     atom:   45    charge:    2.0858    magn:    0.0004    constr:    0.0000
     atom:   46    charge:    3.1148    magn:   -0.0007    constr:    0.0000
     atom:   47    charge:    2.0805    magn:    0.0047    constr:    0.0000
     atom:   48    charge:    2.0837    magn:    0.0137    constr:    0.0000
     atom:   49    charge:    2.0516    magn:    0.2399    constr:    0.0000
     atom:   50    charge:    0.6728    magn:    0.0546    constr:    0.0000
     atom:   51    charge:    0.4314    magn:    0.0008    constr:    0.0000
     atom:   52    charge:    0.4227    magn:    0.0007    constr:    0.0000
     atom:   53    charge:    0.3677    magn:    0.0230    constr:    0.0000
     atom:   54    charge:    0.4228    magn:    0.0006    constr:    0.0000

     total cpu time spent up to now is     1469.1 secs

     total energy              =   -3021.14965130 Ry
     Harris-Foulkes estimate   =   -3021.14979219 Ry
     estimated scf accuracy    <       0.00177982 Ry

     total magnetization       =     1.06 Bohr mag/cell
     absolute magnetization    =     1.23 Bohr mag/cell

     iteration #  3     ecut=    40.42 Ry     beta=0.10
     Davidson diagonalization with overlap
     ethr =  4.47E-07,  avg # of iterations =  1.5

     negative rho (up, down):  1.190E-02 1.196E-02
 
     Magnetic moment per site:
     atom:    1    charge:    3.1244    magn:   -0.0003    constr:    0.0000
     atom:    2    charge:    2.0897    magn:    0.0003    constr:    0.0000
     atom:    3    charge:    3.1198    magn:   -0.0000    constr:    0.0000
     atom:    4    charge:    2.0867    magn:   -0.0001    constr:    0.0000
     atom:    5    charge:    3.1161    magn:   -0.0002    constr:    0.0000
     atom:    6    charge:    2.0795    magn:    0.0021    constr:    0.0000
     atom:    7    charge:    3.1167    magn:   -0.0054    constr:    0.0000
     atom:    8    charge:    2.0792    magn:    0.0251    constr:    0.0000
     atom:    9    charge:    3.1244    magn:   -0.0003    constr:    0.0000
     atom:   10    charge:    2.0898    magn:    0.0003    constr:    0.0000
     atom:   11    charge:    3.1198    magn:   -0.0000    constr:    0.0000
     atom:   12    charge:    2.0871    magn:   -0.0000    constr:    0.0000
     atom:   13    charge:    3.1150    magn:   -0.0002    constr:    0.0000
     atom:   14    charge:    2.0939    magn:    0.0023    constr:    0.0000
     atom:   15    charge:    3.1184    magn:   -0.0008    constr:    0.0000
     atom:   16    charge:    2.0828    magn:    0.0047    constr:    0.0000
     atom:   17    charge:    2.0624    magn:    0.0016    constr:    0.0000
     atom:   18    charge:    3.1239    magn:   -0.0001    constr:    0.0000
     atom:   19    charge:    2.0875    magn:    0.0001    constr:    0.0000
     atom:   20    charge:    2.0847    magn:    0.0001    constr:    0.0000
     atom:   21    charge:    2.0847    magn:    0.0001    constr:    0.0000
     atom:   22    charge:    3.1199    magn:    0.0000    constr:    0.0000
     atom:   23    charge:    2.0908    magn:    0.0002    constr:    0.0000
     atom:   24    charge:    2.0754    magn:   -0.0001    constr:    0.0000
     atom:   25    charge:    2.0868    magn:    0.0000    constr:    0.0000
     atom:   26    charge:    3.1127    magn:   -0.0002    constr:    0.0000
     atom:   27    charge:    2.0802    magn:    0.0025    constr:    0.0000
     atom:   28    charge:    2.0839    magn:    0.0006    constr:    0.0000
     atom:   29    charge:    2.0860    magn:    0.0008    constr:    0.0000
     atom:   30    charge:    3.1171    magn:   -0.0008    constr:    0.0000
     atom:   31    charge:    2.0825    magn:    0.0006    constr:    0.0000
     atom:   32    charge:    2.0827    magn:    0.0065    constr:    0.0000
     atom:   33    charge:    2.0624    magn:    0.0016    constr:    0.0000
     atom:   34    charge:    3.1239    magn:   -0.0001    constr:    0.0000
     atom:   35    charge:    2.0876    magn:    0.0001    constr:    0.0000
     atom:   36    charge:    2.0847    magn:    0.0001    constr:    0.0000
     atom:   37    charge:    2.0847    magn:    0.0001    constr:    0.0000
     atom:   38    charge:    3.1200    magn:    0.0000    constr:    0.0000
     atom:   39    charge:    2.0839    magn:    0.0002    constr:    0.0000
     atom:   40    charge:    2.0756    magn:   -0.0002    constr:    0.0000
     atom:   41    charge:    2.0870    magn:   -0.0000    constr:    0.0000
     atom:   42    charge:    3.1151    magn:   -0.0002    constr:    0.0000
     atom:   43    charge:    2.0803    magn:    0.0030    constr:    0.0000
     atom:   44    charge:    2.0851    magn:    0.0009    constr:    0.0000
     atom:   45    charge:    2.0858    magn:    0.0004    constr:    0.0000
     atom:   46    charge:    3.1148    magn:   -0.0007    constr:    0.0000
     atom:   47    charge:    2.0804    magn:    0.0047    constr:    0.0000
     atom:   48    charge:    2.0837    magn:    0.0137    constr:    0.0000
     atom:   49    charge:    2.0516    magn:    0.2401    constr:    0.0000
     atom:   50    charge:    0.6748    magn:    0.0546    constr:    0.0000
     atom:   51    charge:    0.4317    magn:    0.0009    constr:    0.0000
     atom:   52    charge:    0.4226    magn:    0.0007    constr:    0.0000
     atom:   53    charge:    0.3678    magn:    0.0228    constr:    0.0000
     atom:   54    charge:    0.4224    magn:    0.0006    constr:    0.0000

     total cpu time spent up to now is     1681.1 secs

     total energy              =   -3021.14942774 Ry
     Harris-Foulkes estimate   =   -3021.14973221 Ry
     estimated scf accuracy    <       0.00197891 Ry

     total magnetization       =     1.06 Bohr mag/cell
     absolute magnetization    =     1.23 Bohr mag/cell

     iteration #  4     ecut=    40.42 Ry     beta=0.10
     Davidson diagonalization with overlap
     ethr =  4.47E-07,  avg # of iterations =  3.0

     negative rho (up, down):  1.190E-02 1.196E-02
 
     Magnetic moment per site:
     atom:    1    charge:    3.1244    magn:   -0.0003    constr:    0.0000
     atom:    2    charge:    2.0897    magn:    0.0003    constr:    0.0000
     atom:    3    charge:    3.1198    magn:   -0.0000    constr:    0.0000
     atom:    4    charge:    2.0867    magn:   -0.0001    constr:    0.0000
     atom:    5    charge:    3.1161    magn:   -0.0002    constr:    0.0000
     atom:    6    charge:    2.0795    magn:    0.0021    constr:    0.0000
     atom:    7    charge:    3.1167    magn:   -0.0053    constr:    0.0000
     atom:    8    charge:    2.0793    magn:    0.0250    constr:    0.0000
     atom:    9    charge:    3.1244    magn:   -0.0003    constr:    0.0000
     atom:   10    charge:    2.0898    magn:    0.0003    constr:    0.0000
     atom:   11    charge:    3.1198    magn:   -0.0000    constr:    0.0000
     atom:   12    charge:    2.0870    magn:   -0.0000    constr:    0.0000
     atom:   13    charge:    3.1150    magn:   -0.0002    constr:    0.0000
     atom:   14    charge:    2.0939    magn:    0.0023    constr:    0.0000
     atom:   15    charge:    3.1184    magn:   -0.0008    constr:    0.0000
     atom:   16    charge:    2.0828    magn:    0.0047    constr:    0.0000
     atom:   17    charge:    2.0625    magn:    0.0015    constr:    0.0000
     atom:   18    charge:    3.1239    magn:   -0.0001    constr:    0.0000
     atom:   19    charge:    2.0875    magn:    0.0001    constr:    0.0000
     atom:   20    charge:    2.0847    magn:    0.0001    constr:    0.0000
     atom:   21    charge:    2.0847    magn:    0.0001    constr:    0.0000
     atom:   22    charge:    3.1199    magn:    0.0000    constr:    0.0000
     atom:   23    charge:    2.0908    magn:    0.0002    constr:    0.0000
     atom:   24    charge:    2.0754    magn:   -0.0001    constr:    0.0000
     atom:   25    charge:    2.0867    magn:    0.0000    constr:    0.0000
     atom:   26    charge:    3.1127    magn:   -0.0002    constr:    0.0000
     atom:   27    charge:    2.0803    magn:    0.0025    constr:    0.0000
     atom:   28    charge:    2.0839    magn:    0.0006    constr:    0.0000
     atom:   29    charge:    2.0860    magn:    0.0008    constr:    0.0000
     atom:   30    charge:    3.1171    magn:   -0.0008    constr:    0.0000
     atom:   31    charge:    2.0825    magn:    0.0006    constr:    0.0000
     atom:   32    charge:    2.0829    magn:    0.0065    constr:    0.0000
     atom:   33    charge:    2.0624    magn:    0.0016    constr:    0.0000
     atom:   34    charge:    3.1239    magn:   -0.0001    constr:    0.0000
     atom:   35    charge:    2.0875    magn:    0.0001    constr:    0.0000
     atom:   36    charge:    2.0847    magn:    0.0001    constr:    0.0000
     atom:   37    charge:    2.0847    magn:    0.0001    constr:    0.0000
     atom:   38    charge:    3.1200    magn:    0.0000    constr:    0.0000
     atom:   39    charge:    2.0839    magn:    0.0002    constr:    0.0000
     atom:   40    charge:    2.0756    magn:   -0.0002    constr:    0.0000
     atom:   41    charge:    2.0870    magn:   -0.0000    constr:    0.0000
     atom:   42    charge:    3.1151    magn:   -0.0002    constr:    0.0000
     atom:   43    charge:    2.0803    magn:    0.0031    constr:    0.0000
     atom:   44    charge:    2.0851    magn:    0.0009    constr:    0.0000
     atom:   45    charge:    2.0858    magn:    0.0004    constr:    0.0000
     atom:   46    charge:    3.1148    magn:   -0.0007    constr:    0.0000
     atom:   47    charge:    2.0805    magn:    0.0047    constr:    0.0000
     atom:   48    charge:    2.0837    magn:    0.0137    constr:    0.0000
     atom:   49    charge:    2.0517    magn:    0.2400    constr:    0.0000
     atom:   50    charge:    0.6748    magn:    0.0547    constr:    0.0000
     atom:   51    charge:    0.4319    magn:    0.0009    constr:    0.0000
     atom:   52    charge:    0.4227    magn:    0.0007    constr:    0.0000
     atom:   53    charge:    0.3677    magn:    0.0230    constr:    0.0000
     atom:   54    charge:    0.4224    magn:    0.0006    constr:    0.0000

     total cpu time spent up to now is     1920.5 secs

     total energy              =   -3021.14952260 Ry
     Harris-Foulkes estimate   =   -3021.14954352 Ry
     estimated scf accuracy    <       0.00030051 Ry

     total magnetization       =     1.06 Bohr mag/cell
     absolute magnetization    =     1.23 Bohr mag/cell

     iteration #  5     ecut=    40.42 Ry     beta=0.10
     Davidson diagonalization with overlap
     ethr =  7.55E-08,  avg # of iterations =  1.2

     negative rho (up, down):  1.190E-02 1.196E-02
 
     Magnetic moment per site:
     atom:    1    charge:    3.1244    magn:   -0.0002    constr:    0.0000
     atom:    2    charge:    2.0897    magn:    0.0002    constr:    0.0000
     atom:    3    charge:    3.1198    magn:   -0.0000    constr:    0.0000
     atom:    4    charge:    2.0867    magn:   -0.0001    constr:    0.0000
     atom:    5    charge:    3.1161    magn:   -0.0002    constr:    0.0000
     atom:    6    charge:    2.0795    magn:    0.0021    constr:    0.0000
     atom:    7    charge:    3.1167    magn:   -0.0053    constr:    0.0000
     atom:    8    charge:    2.0795    magn:    0.0249    constr:    0.0000
     atom:    9    charge:    3.1244    magn:   -0.0002    constr:    0.0000
     atom:   10    charge:    2.0898    magn:    0.0003    constr:    0.0000
     atom:   11    charge:    3.1198    magn:   -0.0000    constr:    0.0000
     atom:   12    charge:    2.0870    magn:   -0.0000    constr:    0.0000
     atom:   13    charge:    3.1150    magn:   -0.0002    constr:    0.0000
     atom:   14    charge:    2.0939    magn:    0.0022    constr:    0.0000
     atom:   15    charge:    3.1184    magn:   -0.0008    constr:    0.0000
     atom:   16    charge:    2.0828    magn:    0.0047    constr:    0.0000
     atom:   17    charge:    2.0625    magn:    0.0014    constr:    0.0000
     atom:   18    charge:    3.1240    magn:   -0.0001    constr:    0.0000
     atom:   19    charge:    2.0875    magn:    0.0001    constr:    0.0000
     atom:   20    charge:    2.0847    magn:    0.0001    constr:    0.0000
     atom:   21    charge:    2.0847    magn:    0.0001    constr:    0.0000
     atom:   22    charge:    3.1199    magn:    0.0000    constr:    0.0000
     atom:   23    charge:    2.0908    magn:    0.0002    constr:    0.0000
     atom:   24    charge:    2.0754    magn:   -0.0001    constr:    0.0000
     atom:   25    charge:    2.0867    magn:    0.0000    constr:    0.0000
     atom:   26    charge:    3.1127    magn:   -0.0002    constr:    0.0000
     atom:   27    charge:    2.0802    magn:    0.0026    constr:    0.0000
     atom:   28    charge:    2.0839    magn:    0.0007    constr:    0.0000
     atom:   29    charge:    2.0860    magn:    0.0008    constr:    0.0000
     atom:   30    charge:    3.1172    magn:   -0.0008    constr:    0.0000
     atom:   31    charge:    2.0825    magn:    0.0006    constr:    0.0000
     atom:   32    charge:    2.0830    magn:    0.0065    constr:    0.0000
     atom:   33    charge:    2.0625    magn:    0.0014    constr:    0.0000
     atom:   34    charge:    3.1239    magn:   -0.0001    constr:    0.0000
     atom:   35    charge:    2.0876    magn:    0.0001    constr:    0.0000
     atom:   36    charge:    2.0847    magn:    0.0001    constr:    0.0000
     atom:   37    charge:    2.0847    magn:    0.0001    constr:    0.0000
     atom:   38    charge:    3.1200    magn:    0.0000    constr:    0.0000
     atom:   39    charge:    2.0839    magn:    0.0002    constr:    0.0000
     atom:   40    charge:    2.0756    magn:   -0.0002    constr:    0.0000
     atom:   41    charge:    2.0870    magn:   -0.0000    constr:    0.0000
     atom:   42    charge:    3.1151    magn:   -0.0002    constr:    0.0000
     atom:   43    charge:    2.0803    magn:    0.0031    constr:    0.0000
     atom:   44    charge:    2.0851    magn:    0.0009    constr:    0.0000
     atom:   45    charge:    2.0858    magn:    0.0005    constr:    0.0000
     atom:   46    charge:    3.1147    magn:   -0.0007    constr:    0.0000
     atom:   47    charge:    2.0807    magn:    0.0047    constr:    0.0000
     atom:   48    charge:    2.0837    magn:    0.0137    constr:    0.0000
     atom:   49    charge:    2.0519    magn:    0.2397    constr:    0.0000
     atom:   50    charge:    0.6746    magn:    0.0548    constr:    0.0000
     atom:   51    charge:    0.4322    magn:    0.0010    constr:    0.0000
     atom:   52    charge:    0.4228    magn:    0.0007    constr:    0.0000
     atom:   53    charge:    0.3675    magn:    0.0232    constr:    0.0000
     atom:   54    charge:    0.4224    magn:    0.0006    constr:    0.0000

     total cpu time spent up to now is     2126.7 secs

     total energy              =   -3021.14950506 Ry
     Harris-Foulkes estimate   =   -3021.14952699 Ry
     estimated scf accuracy    <       0.00018749 Ry

     total magnetization       =     1.06 Bohr mag/cell
     absolute magnetization    =     1.23 Bohr mag/cell

     iteration #  6     ecut=    40.42 Ry     beta=0.10
     Davidson diagonalization with overlap
     ethr =  4.71E-08,  avg # of iterations =  3.0

     negative rho (up, down):  1.190E-02 1.196E-02
 
     Magnetic moment per site:
     atom:    1    charge:    3.1244    magn:   -0.0002    constr:    0.0000
     atom:    2    charge:    2.0897    magn:    0.0002    constr:    0.0000
     atom:    3    charge:    3.1198    magn:   -0.0000    constr:    0.0000
     atom:    4    charge:    2.0867    magn:   -0.0001    constr:    0.0000
     atom:    5    charge:    3.1161    magn:   -0.0002    constr:    0.0000
     atom:    6    charge:    2.0795    magn:    0.0021    constr:    0.0000
     atom:    7    charge:    3.1167    magn:   -0.0053    constr:    0.0000
     atom:    8    charge:    2.0794    magn:    0.0249    constr:    0.0000
     atom:    9    charge:    3.1244    magn:   -0.0002    constr:    0.0000
     atom:   10    charge:    2.0898    magn:    0.0002    constr:    0.0000
     atom:   11    charge:    3.1198    magn:   -0.0000    constr:    0.0000
     atom:   12    charge:    2.0870    magn:   -0.0000    constr:    0.0000
     atom:   13    charge:    3.1150    magn:   -0.0002    constr:    0.0000
     atom:   14    charge:    2.0939    magn:    0.0022    constr:    0.0000
     atom:   15    charge:    3.1184    magn:   -0.0008    constr:    0.0000
     atom:   16    charge:    2.0828    magn:    0.0047    constr:    0.0000
     atom:   17    charge:    2.0624    magn:    0.0013    constr:    0.0000
     atom:   18    charge:    3.1240    magn:   -0.0001    constr:    0.0000
     atom:   19    charge:    2.0875    magn:    0.0000    constr:    0.0000
     atom:   20    charge:    2.0847    magn:    0.0001    constr:    0.0000
     atom:   21    charge:    2.0847    magn:    0.0001    constr:    0.0000
     atom:   22    charge:    3.1199    magn:    0.0000    constr:    0.0000
     atom:   23    charge:    2.0908    magn:    0.0002    constr:    0.0000
     atom:   24    charge:    2.0754    magn:   -0.0001    constr:    0.0000
     atom:   25    charge:    2.0867    magn:    0.0000    constr:    0.0000
     atom:   26    charge:    3.1127    magn:   -0.0002    constr:    0.0000
     atom:   27    charge:    2.0802    magn:    0.0026    constr:    0.0000
     atom:   28    charge:    2.0839    magn:    0.0007    constr:    0.0000
     atom:   29    charge:    2.0860    magn:    0.0008    constr:    0.0000
     atom:   30    charge:    3.1171    magn:   -0.0008    constr:    0.0000
     atom:   31    charge:    2.0826    magn:    0.0006    constr:    0.0000
     atom:   32    charge:    2.0830    magn:    0.0065    constr:    0.0000
     atom:   33    charge:    2.0624    magn:    0.0013    constr:    0.0000
     atom:   34    charge:    3.1239    magn:   -0.0001    constr:    0.0000
     atom:   35    charge:    2.0876    magn:    0.0000    constr:    0.0000
     atom:   36    charge:    2.0847    magn:    0.0001    constr:    0.0000
     atom:   37    charge:    2.0847    magn:    0.0001    constr:    0.0000
     atom:   38    charge:    3.1200    magn:    0.0000    constr:    0.0000
     atom:   39    charge:    2.0839    magn:    0.0002    constr:    0.0000
     atom:   40    charge:    2.0756    magn:   -0.0002    constr:    0.0000
     atom:   41    charge:    2.0870    magn:   -0.0000    constr:    0.0000
     atom:   42    charge:    3.1151    magn:   -0.0002    constr:    0.0000
     atom:   43    charge:    2.0803    magn:    0.0031    constr:    0.0000
     atom:   44    charge:    2.0851    magn:    0.0009    constr:    0.0000
     atom:   45    charge:    2.0858    magn:    0.0005    constr:    0.0000
     atom:   46    charge:    3.1147    magn:   -0.0007    constr:    0.0000
     atom:   47    charge:    2.0808    magn:    0.0047    constr:    0.0000
     atom:   48    charge:    2.0837    magn:    0.0136    constr:    0.0000
     atom:   49    charge:    2.0519    magn:    0.2396    constr:    0.0000
     atom:   50    charge:    0.6744    magn:    0.0549    constr:    0.0000
     atom:   51    charge:    0.4325    magn:    0.0011    constr:    0.0000
     atom:   52    charge:    0.4228    magn:    0.0006    constr:    0.0000
     atom:   53    charge:    0.3674    magn:    0.0234    constr:    0.0000
     atom:   54    charge:    0.4225    magn:    0.0006    constr:    0.0000

     total cpu time spent up to now is     2365.3 secs

     total energy              =   -3021.14951321 Ry
     Harris-Foulkes estimate   =   -3021.14951302 Ry
     estimated scf accuracy    <       0.00004789 Ry

     total magnetization       =     1.06 Bohr mag/cell
     absolute magnetization    =     1.23 Bohr mag/cell

     iteration #  7     ecut=    40.42 Ry     beta=0.10
     Davidson diagonalization with overlap
     ethr =  1.20E-08,  avg # of iterations =  3.0

     negative rho (up, down):  1.190E-02 1.196E-02
 
     Magnetic moment per site:
     atom:    1    charge:    3.1244    magn:   -0.0002    constr:    0.0000
     atom:    2    charge:    2.0897    magn:    0.0002    constr:    0.0000
     atom:    3    charge:    3.1198    magn:   -0.0000    constr:    0.0000
     atom:    4    charge:    2.0867    magn:   -0.0001    constr:    0.0000
     atom:    5    charge:    3.1161    magn:   -0.0003    constr:    0.0000
     atom:    6    charge:    2.0795    magn:    0.0021    constr:    0.0000
     atom:    7    charge:    3.1167    magn:   -0.0053    constr:    0.0000
     atom:    8    charge:    2.0793    magn:    0.0248    constr:    0.0000
     atom:    9    charge:    3.1244    magn:   -0.0002    constr:    0.0000
     atom:   10    charge:    2.0898    magn:    0.0002    constr:    0.0000
     atom:   11    charge:    3.1198    magn:   -0.0000    constr:    0.0000
     atom:   12    charge:    2.0870    magn:   -0.0000    constr:    0.0000
     atom:   13    charge:    3.1150    magn:   -0.0002    constr:    0.0000
     atom:   14    charge:    2.0939    magn:    0.0022    constr:    0.0000
     atom:   15    charge:    3.1184    magn:   -0.0008    constr:    0.0000
     atom:   16    charge:    2.0829    magn:    0.0047    constr:    0.0000
     atom:   17    charge:    2.0624    magn:    0.0012    constr:    0.0000
     atom:   18    charge:    3.1240    magn:   -0.0000    constr:    0.0000
     atom:   19    charge:    2.0875    magn:    0.0000    constr:    0.0000
     atom:   20    charge:    2.0847    magn:    0.0001    constr:    0.0000
     atom:   21    charge:    2.0847    magn:    0.0001    constr:    0.0000
     atom:   22    charge:    3.1199    magn:    0.0000    constr:    0.0000
     atom:   23    charge:    2.0908    magn:    0.0003    constr:    0.0000
     atom:   24    charge:    2.0754    magn:   -0.0001    constr:    0.0000
     atom:   25    charge:    2.0867    magn:    0.0000    constr:    0.0000
     atom:   26    charge:    3.1127    magn:   -0.0003    constr:    0.0000
     atom:   27    charge:    2.0802    magn:    0.0026    constr:    0.0000
     atom:   28    charge:    2.0839    magn:    0.0007    constr:    0.0000
     atom:   29    charge:    2.0860    magn:    0.0009    constr:    0.0000
     atom:   30    charge:    3.1171    magn:   -0.0008    constr:    0.0000
     atom:   31    charge:    2.0826    magn:    0.0006    constr:    0.0000
     atom:   32    charge:    2.0830    magn:    0.0065    constr:    0.0000
     atom:   33    charge:    2.0624    magn:    0.0012    constr:    0.0000
     atom:   34    charge:    3.1239    magn:   -0.0000    constr:    0.0000
     atom:   35    charge:    2.0875    magn:    0.0000    constr:    0.0000
     atom:   36    charge:    2.0847    magn:    0.0001    constr:    0.0000
     atom:   37    charge:    2.0847    magn:    0.0001    constr:    0.0000
     atom:   38    charge:    3.1200    magn:    0.0000    constr:    0.0000
     atom:   39    charge:    2.0839    magn:    0.0002    constr:    0.0000
     atom:   40    charge:    2.0756    magn:   -0.0001    constr:    0.0000
     atom:   41    charge:    2.0870    magn:   -0.0000    constr:    0.0000
     atom:   42    charge:    3.1151    magn:   -0.0002    constr:    0.0000
     atom:   43    charge:    2.0803    magn:    0.0031    constr:    0.0000
     atom:   44    charge:    2.0851    magn:    0.0010    constr:    0.0000
     atom:   45    charge:    2.0858    magn:    0.0005    constr:    0.0000
     atom:   46    charge:    3.1147    magn:   -0.0007    constr:    0.0000
     atom:   47    charge:    2.0808    magn:    0.0046    constr:    0.0000
     atom:   48    charge:    2.0837    magn:    0.0136    constr:    0.0000
     atom:   49    charge:    2.0518    magn:    0.2395    constr:    0.0000
     atom:   50    charge:    0.6740    magn:    0.0549    constr:    0.0000
     atom:   51    charge:    0.4326    magn:    0.0011    constr:    0.0000
     atom:   52    charge:    0.4228    magn:    0.0006    constr:    0.0000
     atom:   53    charge:    0.3674    magn:    0.0234    constr:    0.0000
     atom:   54    charge:    0.4226    magn:    0.0006    constr:    0.0000

     total cpu time spent up to now is     2602.5 secs

     total energy              =   -3021.14951367 Ry
     Harris-Foulkes estimate   =   -3021.14951528 Ry
     estimated scf accuracy    <       0.00001294 Ry

     total magnetization       =     1.06 Bohr mag/cell
     absolute magnetization    =     1.23 Bohr mag/cell

     iteration #  8     ecut=    40.42 Ry     beta=0.10
     Davidson diagonalization with overlap
     ethr =  3.25E-09,  avg # of iterations =  3.0

     negative rho (up, down):  1.190E-02 1.196E-02
 
     Magnetic moment per site:
     atom:    1    charge:    3.1244    magn:   -0.0002    constr:    0.0000
     atom:    2    charge:    2.0897    magn:    0.0002    constr:    0.0000
     atom:    3    charge:    3.1198    magn:   -0.0000    constr:    0.0000
     atom:    4    charge:    2.0867    magn:   -0.0001    constr:    0.0000
     atom:    5    charge:    3.1161    magn:   -0.0003    constr:    0.0000
     atom:    6    charge:    2.0795    magn:    0.0022    constr:    0.0000
     atom:    7    charge:    3.1167    magn:   -0.0052    constr:    0.0000
     atom:    8    charge:    2.0793    magn:    0.0248    constr:    0.0000
     atom:    9    charge:    3.1244    magn:   -0.0002    constr:    0.0000
     atom:   10    charge:    2.0898    magn:    0.0002    constr:    0.0000
     atom:   11    charge:    3.1198    magn:   -0.0000    constr:    0.0000
     atom:   12    charge:    2.0870    magn:   -0.0000    constr:    0.0000
     atom:   13    charge:    3.1150    magn:   -0.0002    constr:    0.0000
     atom:   14    charge:    2.0939    magn:    0.0022    constr:    0.0000
     atom:   15    charge:    3.1184    magn:   -0.0008    constr:    0.0000
     atom:   16    charge:    2.0828    magn:    0.0047    constr:    0.0000
     atom:   17    charge:    2.0624    magn:    0.0011    constr:    0.0000
     atom:   18    charge:    3.1239    magn:   -0.0000    constr:    0.0000
     atom:   19    charge:    2.0875    magn:    0.0000    constr:    0.0000
     atom:   20    charge:    2.0847    magn:    0.0001    constr:    0.0000
     atom:   21    charge:    2.0847    magn:    0.0001    constr:    0.0000
     atom:   22    charge:    3.1199    magn:    0.0000    constr:    0.0000
     atom:   23    charge:    2.0908    magn:    0.0003    constr:    0.0000
     atom:   24    charge:    2.0754    magn:   -0.0000    constr:    0.0000
     atom:   25    charge:    2.0867    magn:    0.0000    constr:    0.0000
     atom:   26    charge:    3.1127    magn:   -0.0003    constr:    0.0000
     atom:   27    charge:    2.0802    magn:    0.0027    constr:    0.0000
     atom:   28    charge:    2.0839    magn:    0.0007    constr:    0.0000
     atom:   29    charge:    2.0860    magn:    0.0009    constr:    0.0000
     atom:   30    charge:    3.1171    magn:   -0.0008    constr:    0.0000
     atom:   31    charge:    2.0825    magn:    0.0006    constr:    0.0000
     atom:   32    charge:    2.0829    magn:    0.0065    constr:    0.0000
     atom:   33    charge:    2.0624    magn:    0.0011    constr:    0.0000
     atom:   34    charge:    3.1239    magn:   -0.0000    constr:    0.0000
     atom:   35    charge:    2.0876    magn:    0.0000    constr:    0.0000
     atom:   36    charge:    2.0847    magn:    0.0001    constr:    0.0000
     atom:   37    charge:    2.0847    magn:    0.0001    constr:    0.0000
     atom:   38    charge:    3.1200    magn:    0.0000    constr:    0.0000
     atom:   39    charge:    2.0839    magn:    0.0002    constr:    0.0000
     atom:   40    charge:    2.0756    magn:   -0.0001    constr:    0.0000
     atom:   41    charge:    2.0870    magn:   -0.0000    constr:    0.0000
     atom:   42    charge:    3.1151    magn:   -0.0002    constr:    0.0000
     atom:   43    charge:    2.0803    magn:    0.0032    constr:    0.0000
     atom:   44    charge:    2.0851    magn:    0.0010    constr:    0.0000
     atom:   45    charge:    2.0858    magn:    0.0005    constr:    0.0000
     atom:   46    charge:    3.1148    magn:   -0.0007    constr:    0.0000
     atom:   47    charge:    2.0807    magn:    0.0046    constr:    0.0000
     atom:   48    charge:    2.0837    magn:    0.0136    constr:    0.0000
     atom:   49    charge:    2.0517    magn:    0.2395    constr:    0.0000
     atom:   50    charge:    0.6739    magn:    0.0549    constr:    0.0000
     atom:   51    charge:    0.4327    magn:    0.0011    constr:    0.0000
     atom:   52    charge:    0.4229    magn:    0.0006    constr:    0.0000
     atom:   53    charge:    0.3674    magn:    0.0234    constr:    0.0000
     atom:   54    charge:    0.4227    magn:    0.0006    constr:    0.0000

     total cpu time spent up to now is     2842.1 secs

     total energy              =   -3021.14951426 Ry
     Harris-Foulkes estimate   =   -3021.14951475 Ry
     estimated scf accuracy    <       0.00000427 Ry

     total magnetization       =     1.06 Bohr mag/cell
     absolute magnetization    =     1.23 Bohr mag/cell

     iteration #  9     ecut=    40.42 Ry     beta=0.10
     Davidson diagonalization with overlap
     ethr =  1.07E-09,  avg # of iterations =  3.0

     negative rho (up, down):  1.190E-02 1.196E-02
 
     Magnetic moment per site:
     atom:    1    charge:    3.1244    magn:   -0.0002    constr:    0.0000
     atom:    2    charge:    2.0897    magn:    0.0001    constr:    0.0000
     atom:    3    charge:    3.1198    magn:   -0.0000    constr:    0.0000
     atom:    4    charge:    2.0867    magn:   -0.0001    constr:    0.0000
     atom:    5    charge:    3.1161    magn:   -0.0003    constr:    0.0000
     atom:    6    charge:    2.0795    magn:    0.0022    constr:    0.0000
     atom:    7    charge:    3.1167    magn:   -0.0052    constr:    0.0000
     atom:    8    charge:    2.0793    magn:    0.0248    constr:    0.0000
     atom:    9    charge:    3.1244    magn:   -0.0002    constr:    0.0000
     atom:   10    charge:    2.0898    magn:    0.0002    constr:    0.0000
     atom:   11    charge:    3.1198    magn:   -0.0000    constr:    0.0000
     atom:   12    charge:    2.0870    magn:   -0.0000    constr:    0.0000
     atom:   13    charge:    3.1150    magn:   -0.0002    constr:    0.0000
     atom:   14    charge:    2.0939    magn:    0.0022    constr:    0.0000
     atom:   15    charge:    3.1184    magn:   -0.0008    constr:    0.0000
     atom:   16    charge:    2.0828    magn:    0.0047    constr:    0.0000
     atom:   17    charge:    2.0624    magn:    0.0010    constr:    0.0000
     atom:   18    charge:    3.1239    magn:   -0.0000    constr:    0.0000
     atom:   19    charge:    2.0875    magn:    0.0000    constr:    0.0000
     atom:   20    charge:    2.0847    magn:    0.0001    constr:    0.0000
     atom:   21    charge:    2.0847    magn:    0.0001    constr:    0.0000
     atom:   22    charge:    3.1199    magn:    0.0000    constr:    0.0000
     atom:   23    charge:    2.0908    magn:    0.0003    constr:    0.0000
     atom:   24    charge:    2.0754    magn:   -0.0000    constr:    0.0000
     atom:   25    charge:    2.0867    magn:    0.0000    constr:    0.0000
     atom:   26    charge:    3.1127    magn:   -0.0003    constr:    0.0000
     atom:   27    charge:    2.0803    magn:    0.0027    constr:    0.0000
     atom:   28    charge:    2.0839    magn:    0.0008    constr:    0.0000
     atom:   29    charge:    2.0860    magn:    0.0009    constr:    0.0000
     atom:   30    charge:    3.1171    magn:   -0.0008    constr:    0.0000
     atom:   31    charge:    2.0825    magn:    0.0006    constr:    0.0000
     atom:   32    charge:    2.0829    magn:    0.0065    constr:    0.0000
     atom:   33    charge:    2.0624    magn:    0.0010    constr:    0.0000
     atom:   34    charge:    3.1239    magn:   -0.0000    constr:    0.0000
     atom:   35    charge:    2.0876    magn:    0.0000    constr:    0.0000
     atom:   36    charge:    2.0847    magn:    0.0001    constr:    0.0000
     atom:   37    charge:    2.0847    magn:    0.0001    constr:    0.0000
     atom:   38    charge:    3.1200    magn:    0.0000    constr:    0.0000
     atom:   39    charge:    2.0839    magn:    0.0002    constr:    0.0000
     atom:   40    charge:    2.0756    magn:   -0.0001    constr:    0.0000
     atom:   41    charge:    2.0870    magn:   -0.0000    constr:    0.0000
     atom:   42    charge:    3.1151    magn:   -0.0002    constr:    0.0000
     atom:   43    charge:    2.0803    magn:    0.0032    constr:    0.0000
     atom:   44    charge:    2.0851    magn:    0.0010    constr:    0.0000
     atom:   45    charge:    2.0858    magn:    0.0005    constr:    0.0000
     atom:   46    charge:    3.1148    magn:   -0.0007    constr:    0.0000
     atom:   47    charge:    2.0806    magn:    0.0046    constr:    0.0000
     atom:   48    charge:    2.0837    magn:    0.0136    constr:    0.0000
     atom:   49    charge:    2.0517    magn:    0.2394    constr:    0.0000
     atom:   50    charge:    0.6739    magn:    0.0549    constr:    0.0000
     atom:   51    charge:    0.4327    magn:    0.0011    constr:    0.0000
     atom:   52    charge:    0.4229    magn:    0.0006    constr:    0.0000
     atom:   53    charge:    0.3674    magn:    0.0235    constr:    0.0000
     atom:   54    charge:    0.4228    magn:    0.0006    constr:    0.0000

     total cpu time spent up to now is     3085.2 secs

     total energy              =   -3021.14951472 Ry
     Harris-Foulkes estimate   =   -3021.14951466 Ry
     estimated scf accuracy    <       0.00000089 Ry

     total magnetization       =     1.06 Bohr mag/cell
     absolute magnetization    =     1.23 Bohr mag/cell

     iteration # 10     ecut=    40.42 Ry     beta=0.10
     Davidson diagonalization with overlap
     ethr =  2.23E-10,  avg # of iterations =  3.0

     negative rho (up, down):  1.190E-02 1.196E-02
 
     Magnetic moment per site:
     atom:    1    charge:    3.1244    magn:   -0.0001    constr:    0.0000
     atom:    2    charge:    2.0897    magn:    0.0001    constr:    0.0000
     atom:    3    charge:    3.1198    magn:   -0.0000    constr:    0.0000
     atom:    4    charge:    2.0867    magn:   -0.0001    constr:    0.0000
     atom:    5    charge:    3.1161    magn:   -0.0003    constr:    0.0000
     atom:    6    charge:    2.0795    magn:    0.0022    constr:    0.0000
     atom:    7    charge:    3.1167    magn:   -0.0052    constr:    0.0000
     atom:    8    charge:    2.0793    magn:    0.0248    constr:    0.0000
     atom:    9    charge:    3.1244    magn:   -0.0001    constr:    0.0000
     atom:   10    charge:    2.0898    magn:    0.0001    constr:    0.0000
     atom:   11    charge:    3.1198    magn:   -0.0000    constr:    0.0000
     atom:   12    charge:    2.0870    magn:   -0.0000    constr:    0.0000
     atom:   13    charge:    3.1150    magn:   -0.0002    constr:    0.0000
     atom:   14    charge:    2.0939    magn:    0.0022    constr:    0.0000
     atom:   15    charge:    3.1184    magn:   -0.0008    constr:    0.0000
     atom:   16    charge:    2.0828    magn:    0.0047    constr:    0.0000
     atom:   17    charge:    2.0624    magn:    0.0008    constr:    0.0000
     atom:   18    charge:    3.1239    magn:   -0.0000    constr:    0.0000
     atom:   19    charge:    2.0875    magn:    0.0000    constr:    0.0000
     atom:   20    charge:    2.0847    magn:    0.0001    constr:    0.0000
     atom:   21    charge:    2.0847    magn:    0.0001    constr:    0.0000
     atom:   22    charge:    3.1199    magn:    0.0000    constr:    0.0000
     atom:   23    charge:    2.0908    magn:    0.0003    constr:    0.0000
     atom:   24    charge:    2.0754    magn:   -0.0000    constr:    0.0000
     atom:   25    charge:    2.0867    magn:    0.0000    constr:    0.0000
     atom:   26    charge:    3.1127    magn:   -0.0003    constr:    0.0000
     atom:   27    charge:    2.0803    magn:    0.0027    constr:    0.0000
     atom:   28    charge:    2.0839    magn:    0.0008    constr:    0.0000
     atom:   29    charge:    2.0860    magn:    0.0009    constr:    0.0000
     atom:   30    charge:    3.1171    magn:   -0.0008    constr:    0.0000
     atom:   31    charge:    2.0825    magn:    0.0006    constr:    0.0000
     atom:   32    charge:    2.0829    magn:    0.0065    constr:    0.0000
     atom:   33    charge:    2.0624    magn:    0.0008    constr:    0.0000
     atom:   34    charge:    3.1239    magn:   -0.0000    constr:    0.0000
     atom:   35    charge:    2.0875    magn:    0.0000    constr:    0.0000
     atom:   36    charge:    2.0847    magn:    0.0001    constr:    0.0000
     atom:   37    charge:    2.0847    magn:    0.0001    constr:    0.0000
     atom:   38    charge:    3.1200    magn:    0.0000    constr:    0.0000
     atom:   39    charge:    2.0839    magn:    0.0002    constr:    0.0000
     atom:   40    charge:    2.0756    magn:   -0.0001    constr:    0.0000
     atom:   41    charge:    2.0870    magn:   -0.0000    constr:    0.0000
     atom:   42    charge:    3.1151    magn:   -0.0003    constr:    0.0000
     atom:   43    charge:    2.0803    magn:    0.0032    constr:    0.0000
     atom:   44    charge:    2.0851    magn:    0.0010    constr:    0.0000
     atom:   45    charge:    2.0858    magn:    0.0006    constr:    0.0000
     atom:   46    charge:    3.1148    magn:   -0.0007    constr:    0.0000
     atom:   47    charge:    2.0806    magn:    0.0046    constr:    0.0000
     atom:   48    charge:    2.0837    magn:    0.0136    constr:    0.0000
     atom:   49    charge:    2.0517    magn:    0.2394    constr:    0.0000
     atom:   50    charge:    0.6739    magn:    0.0549    constr:    0.0000
     atom:   51    charge:    0.4328    magn:    0.0010    constr:    0.0000
     atom:   52    charge:    0.4228    magn:    0.0006    constr:    0.0000
     atom:   53    charge:    0.3675    magn:    0.0235    constr:    0.0000
     atom:   54    charge:    0.4227    magn:    0.0006    constr:    0.0000

     total cpu time spent up to now is     3324.7 secs

     End of self-consistent calculation

 ------ SPIN UP ------------


          k = 0.0000 0.0000 0.0000 ( 34665 PWs)   bands (ev):

   -58.3041 -58.2691 -57.3861 -57.3804 -57.3473 -57.3096 -57.2583 -57.0893
   -57.0629 -57.0573 -57.0189 -56.9202 -56.8951 -56.8850 -56.8001 -56.7616
   -34.7493 -34.5727 -34.5439 -34.5107 -34.4157 -34.3589 -33.8811 -33.8687
   -33.7507 -33.6776 -33.6356 -33.5928 -33.5606 -33.5536 -33.5476 -33.5411
   -33.5295 -33.5147 -33.4893 -33.4878 -33.4734 -33.4715 -33.4690 -33.4500
   -33.3396 -33.3350 -33.3301 -33.3275 -33.3145 -33.2865 -33.2810 -33.2610
   -33.2407 -33.2354 -33.2350 -33.2257 -33.1965 -33.1751 -33.1400 -33.1388
   -33.1005 -33.0781 -33.0489 -33.0279 -33.0144 -32.9889 -32.9472 -32.8814
   -18.4694 -18.0366 -17.8122 -17.7118 -17.5513 -17.5298 -17.4858 -17.3841
   -17.3574 -17.2573 -17.0453 -17.0245 -17.0167 -16.9840 -16.9234 -16.8546
   -16.8355 -16.7981 -16.7401 -16.7080 -16.6893 -16.6569 -16.5930 -16.5887
   -16.4659 -16.4183 -16.3993 -16.3617 -16.3257 -16.1466 -16.0858 -15.5996
   -15.5387 -11.2424  -6.0479  -5.4967  -5.2826  -5.2027  -5.0939  -4.9919
    -4.9818  -4.9181  -4.8786  -4.7326  -4.6500  -4.5996  -4.5855  -4.5103
    -4.4290  -4.4137  -4.3524  -4.3164  -4.2368  -4.2191  -4.2014  -4.1422
    -4.0311  -4.0248  -3.9813  -3.9086  -3.8923  -3.8861  -3.8837  -3.8408
    -3.7766  -3.7547  -3.7490  -3.6632  -3.6328  -3.5824  -3.5425  -3.5278
    -3.5240  -3.4191  -3.4079  -3.3606  -3.2727  -3.2328  -3.1880  -3.0869
    -2.9236  -2.8966  -2.8507  -2.8047  -2.7457  -2.6936  -2.6724  -2.6623
    -2.6332  -2.5365  -2.4877  -2.4386  -2.3777  -2.3327  -2.2472  -2.2290
    -2.2247  -2.1599  -2.0698  -2.0410  -1.9975  -1.9591  -1.9295  -1.8987
    -1.8534  -1.7369  -1.6930  -1.6675  -1.6402  -1.6301  -1.5855  -1.5032
    -1.4204  -1.3667  -1.3524  -1.3374  -1.3144  -1.2685  -1.2231  -1.1702
    -1.1598  -1.1102  -1.1076  -1.0916  -1.0625  -0.9794  -0.8729  -0.8311
    -0.8080  -0.6928  -0.6867  -0.6237  -0.5518  -0.5105  -0.4828  -0.1861
     1.0267   1.1235   1.4184   1.6967   1.8049   1.9229   1.9703   2.0170
     2.0471   2.1344   2.2110   2.2317   2.2778   2.3967   2.4719   2.4857
     2.4929   2.5200   2.6227   2.6680   2.6727   2.6890   2.7117   2.8284
     2.8432   2.8879   2.9022   2.9546   2.9698   3.0228   3.0314   3.0529
     3.1068   3.1618   3.2003   3.2015   3.2490   3.2570   3.4127   3.4469
     3.4794   3.5218   3.5990   3.6276   3.6718   3.7157   3.8300   3.9573
     4.1050   4.1362   4.3277   4.4738   4.5955   4.7080   4.7859   4.8362
     5.0865   5.1342   5.2116   5.3548   5.3991   5.4047   5.4261   5.4343
     5.4474   5.5240   5.5559   5.6634   5.7199   5.7360   5.9076   5.9193
     5.9566   6.0762   6.0955   6.1377   6.2184   6.2970   6.4235   6.4910
     6.5439   6.5640   6.7835   6.8149   7.2119   7.9149   8.1535   8.1779
     8.3479   8.3908   8.6392   8.7166   8.7538   8.9677   9.1452   9.2484
     9.2979   9.4482   9.6195

          k = 0.0000 0.0280 0.0000 ( 34717 PWs)   bands (ev):

   -58.3018 -58.2714 -57.3843 -57.3787 -57.3497 -57.3107 -57.2579 -57.0891
   -57.0629 -57.0557 -57.0209 -56.9179 -56.8953 -56.8873 -56.7976 -56.7642
   -34.7239 -34.5707 -34.5458 -34.5045 -34.4222 -34.3859 -33.8557 -33.8433
   -33.7299 -33.6713 -33.6294 -33.5902 -33.5674 -33.5499 -33.5419 -33.5339
   -33.5288 -33.5165 -33.5133 -33.4961 -33.4883 -33.4718 -33.4634 -33.4436
   -33.3339 -33.3280 -33.3147 -33.3124 -33.3086 -33.3031 -33.2785 -33.2593
   -33.2454 -33.2372 -33.2357 -33.2250 -33.2013 -33.1984 -33.1461 -33.1328
   -33.1123 -33.0746 -33.0551 -33.0278 -33.0141 -32.9937 -32.9746 -32.9100
   -18.4110 -17.9769 -17.7623 -17.6816 -17.6061 -17.5067 -17.4369 -17.3721
   -17.3262 -17.2880 -17.0963 -17.0034 -16.9954 -16.9731 -16.9265 -16.8758
   -16.7963 -16.7736 -16.7610 -16.7358 -16.7072 -16.6821 -16.6180 -16.5665
   -16.4800 -16.4435 -16.4061 -16.3850 -16.3578 -16.1654 -16.1275 -15.6136
   -15.5642 -11.2434  -5.9625  -5.4126  -5.2033  -5.1321  -5.0238  -4.9556
    -4.9253  -4.8972  -4.8076  -4.7293  -4.6684  -4.6536  -4.5266  -4.5157
    -4.4166  -4.3768  -4.3629  -4.3231  -4.2577  -4.2168  -4.2004  -4.1783
    -4.0997  -4.0685  -4.0198  -4.0052  -3.9784  -3.9711  -3.9221  -3.8618
    -3.8154  -3.7998  -3.7537  -3.7153  -3.6876  -3.6700  -3.5567  -3.4393
    -3.4035  -3.3217  -3.3093  -3.3003  -3.2677  -3.1243  -3.1041  -2.9446
    -2.9037  -2.8822  -2.8036  -2.7482  -2.7440  -2.7210  -2.6899  -2.6514
    -2.5980  -2.5174  -2.4578  -2.4436  -2.4162  -2.2792  -2.2551  -2.2228
    -2.2120  -2.1526  -2.1441  -2.0276  -1.9842  -1.9572  -1.9253  -1.9132
    -1.8730  -1.7670  -1.7579  -1.7184  -1.6797  -1.6096  -1.5820  -1.5716
    -1.5012  -1.4601  -1.3906  -1.3784  -1.3747  -1.3582  -1.2844  -1.2710
    -1.2347  -1.1745  -1.1433  -1.0695  -0.9929  -0.9529  -0.9267  -0.8965
    -0.8760  -0.8384  -0.7292  -0.5990  -0.5725  -0.5588  -0.5388  -0.2272
     1.1594   1.1645   1.4196   1.8330   1.8773   1.8948   1.9274   2.0038
     2.0623   2.0803   2.3013   2.3096   2.3423   2.4594   2.4954   2.5159
     2.5237   2.5455   2.5504   2.5988   2.7160   2.7334   2.8036   2.8151
     2.8370   2.9015   2.9378   2.9662   2.9828   2.9956   3.0166   3.0676
     3.0878   3.1240   3.1776   3.2362   3.2486   3.3290   3.4375   3.4783
     3.5140   3.5449   3.5664   3.5899   3.6451   3.6686   3.7883   3.9094
     4.0594   4.2034   4.2840   4.5272   4.7062   4.7092   4.8160   4.9112
     5.1134   5.1747   5.2576   5.3042   5.3741   5.4135   5.4363   5.4799
     5.5084   5.5347   5.5505   5.6627   5.7059   5.7152   5.8241   5.8852
     5.9471   5.9932   6.0367   6.0525   6.1819   6.2523   6.3898   6.4350
     6.4526   6.5542   6.7252   6.8178   7.3177   7.4545   7.9943   8.0637
     8.3438   8.4991   8.5259   8.7024   8.7779   8.9954   9.1110   9.3120
     9.3677   9.4570   9.5214

          k = 0.0000 0.0560 0.0000 ( 34721 PWs)   bands (ev):

   -58.2954 -58.2778 -57.3809 -57.3736 -57.3561 -57.3129 -57.2572 -57.0887
   -57.0634 -57.0511 -57.0259 -56.9115 -56.8958 -56.8938 -56.7909 -56.7709
   -34.6540 -34.5655 -34.5510 -34.4873 -34.4590 -34.4398 -33.7859 -33.7738
   -33.6792 -33.6544 -33.6127 -33.5906 -33.5898 -33.5839 -33.5692 -33.5658
   -33.5378 -33.5288 -33.5115 -33.4930 -33.4698 -33.4650 -33.4616 -33.4094
   -33.3685 -33.3238 -33.3214 -33.3064 -33.2800 -33.2701 -33.2547 -33.2546
   -33.2535 -33.2450 -33.2419 -33.2237 -33.2167 -33.2079 -33.1634 -33.1318
   -33.1166 -33.0718 -33.0717 -33.0485 -33.0273 -33.0140 -33.0058 -32.9805
   -18.2499 -17.8122 -17.7898 -17.6324 -17.5989 -17.4089 -17.3898 -17.3716
   -17.3062 -17.2639 -17.2294 -17.0428 -16.9855 -16.9194 -16.9158 -16.8984
   -16.8394 -16.8151 -16.7267 -16.7033 -16.6978 -16.6722 -16.6219 -16.5593
   -16.5127 -16.5073 -16.4515 -16.4395 -16.4130 -16.2310 -16.2080 -15.6421
   -15.6179 -11.2451  -5.7231  -5.1797  -5.0439  -4.9872  -4.9514  -4.9158
    -4.8467  -4.8308  -4.8133  -4.7696  -4.7314  -4.5520  -4.5064  -4.4637
    -4.3920  -4.3909  -4.3494  -4.3184  -4.3040  -4.2857  -4.2479  -4.2115
    -4.2071  -4.1906  -4.1294  -4.0595  -4.0164  -3.9837  -3.9643  -3.9094
    -3.8890  -3.8146  -3.7842  -3.7004  -3.6536  -3.5443  -3.4112  -3.4037
    -3.3637  -3.2860  -3.2460  -3.1362  -3.0884  -3.0698  -3.0381  -3.0094
    -2.9662  -2.9559  -2.8251  -2.7950  -2.7383  -2.6941  -2.6489  -2.5575
    -2.4814  -2.4734  -2.4394  -2.3529  -2.3003  -2.2947  -2.2196  -2.1864
    -2.1514  -2.1372  -2.1179  -2.0849  -2.0522  -2.0083  -1.9935  -1.9675
    -1.9315  -1.8899  -1.8792  -1.8589  -1.8098  -1.7500  -1.6547  -1.6061
    -1.5936  -1.5760  -1.5104  -1.4716  -1.4500  -1.4442  -1.4294  -1.3747
    -1.2900  -1.2692  -1.2127  -1.1912  -1.0877  -0.9998  -0.9758  -0.9424
    -0.8577  -0.8342  -0.7359  -0.7139  -0.6188  -0.5803  -0.5625  -0.3306
     1.2883   1.4300   1.5027   1.7239   1.8006   1.8936   1.9643   2.0620
     2.1426   2.2782   2.2834   2.3351   2.4191   2.4883   2.5076   2.5337
     2.5746   2.6140   2.6645   2.7111   2.7548   2.7721   2.8033   2.8516
     2.8672   2.8860   2.8958   2.9655   3.0119   3.0301   3.0391   3.0659
     3.1269   3.1602   3.1836   3.2619   3.3102   3.3416   3.3885   3.4364
     3.4740   3.4897   3.5654   3.6136   3.6764   3.6880   3.7275   3.8036
     3.9262   4.1613   4.3258   4.6545   4.7449   4.8452   4.9370   5.0747
     5.0808   5.1781   5.2845   5.3360   5.4042   5.4395   5.4728   5.5018
     5.5023   5.5640   5.5837   5.6500   5.6551   5.7555   5.7743   5.8139
     5.8475   5.8697   5.8905   5.9331   6.1196   6.1596   6.2983   6.3703
     6.4254   6.4442   6.7215   6.7501   6.9962   7.2089   7.6111   7.7448
     8.2021   8.3792   8.7086   8.8234   8.8391   8.8845   9.1792   9.3508
     9.4265   9.6058   9.7086

          k = 0.0000-0.0840 0.0000 ( 34678 PWs)   bands (ev):

   -58.2873 -58.2860 -57.3793 -57.3672 -57.3629 -57.3141 -57.2568 -57.0885
   -57.0637 -57.0478 -57.0293 -56.9030 -56.9023 -56.8960 -56.7841 -56.7777
   -34.5591 -34.5581 -34.5572 -34.5566 -34.4642 -34.4630 -33.7020 -33.6889
   -33.6852 -33.6465 -33.6452 -33.6394 -33.6077 -33.5916 -33.5875 -33.5768
   -33.5363 -33.5307 -33.5110 -33.5023 -33.4668 -33.4603 -33.3985 -33.3835
   -33.3787 -33.3627 -33.3253 -33.3206 -33.3033 -33.2722 -33.2591 -33.2502
   -33.2484 -33.2480 -33.2236 -33.2211 -33.1725 -33.1482 -33.1473 -33.1396
   -33.1260 -33.1237 -33.0946 -33.0939 -33.0277 -33.0194 -33.0166 -33.0106
   -18.0248 -18.0241 -17.5923 -17.5832 -17.5094 -17.4856 -17.4853 -17.3950
   -17.2580 -17.2172 -17.1296 -17.1042 -17.0723 -17.0371 -16.8907 -16.8447
   -16.8076 -16.8073 -16.8059 -16.6746 -16.6127 -16.6094 -16.6030 -16.5791
   -16.5481 -16.5244 -16.5072 -16.4749 -16.4658 -16.2734 -16.2494 -15.6514
   -15.6514 -11.2460  -5.3835  -5.3833  -4.9122  -4.8873  -4.8863  -4.8736
    -4.8514  -4.7698  -4.7582  -4.7191  -4.6584  -4.6040  -4.5672  -4.5601
    -4.4912  -4.4690  -4.4458  -4.3916  -4.3757  -4.2656  -4.2534  -4.2456
    -4.1584  -4.1169  -4.0665  -4.0370  -3.9942  -3.9171  -3.8895  -3.8826
    -3.7807  -3.7545  -3.7100  -3.6734  -3.6659  -3.6485  -3.6230  -3.4131
    -3.3603  -3.3488  -3.1515  -3.0769  -3.0712  -3.0354  -2.9287  -2.9264
    -2.9174  -2.8494  -2.8264  -2.7916  -2.7735  -2.6936  -2.6691  -2.6440
    -2.5230  -2.5028  -2.4198  -2.4035  -2.3953  -2.3733  -2.3102  -2.2436
    -2.2265  -2.1652  -2.1183  -2.0564  -2.0053  -1.9793  -1.9751  -1.9700
    -1.9656  -1.9416  -1.8359  -1.7978  -1.7778  -1.7277  -1.6916  -1.6562
    -1.6402  -1.6095  -1.5909  -1.5166  -1.5071  -1.4647  -1.4451  -1.4221
    -1.3815  -1.3305  -1.2771  -1.1775  -1.1371  -1.1158  -1.0897  -1.0579
    -0.8373  -0.8140  -0.6166  -0.6076  -0.6026  -0.5944  -0.5455  -0.4969
     1.4845   1.4872   1.6368   1.6374   1.7164   1.7173   2.0874   2.0882
     2.1514   2.2063   2.3769   2.4118   2.4483   2.4943   2.5421   2.5496
     2.6567   2.6685   2.6779   2.6916   2.7436   2.7541   2.8115   2.8145
     2.9143   2.9494   2.9931   3.0208   3.0258   3.0287   3.0352   3.0387
     3.0459   3.2270   3.2366   3.2672   3.2996   3.3416   3.3679   3.3981
     3.4354   3.4503   3.5052   3.6274   3.6974   3.7368   3.7513   3.7931
     3.8479   4.0383   4.3782   4.7589   4.8345   4.8681   4.8688   5.0546
     5.1463   5.2261   5.3167   5.3326   5.3671   5.4102   5.4706   5.5453
     5.5669   5.5987   5.6016   5.6888   5.7015   5.7207   5.7313   5.7448
     5.7700   5.8109   5.8442   5.9448   6.0268   6.1599   6.2822   6.3852
     6.4623   6.4781   6.5885   6.6077   6.9318   6.9826   7.4496   7.6133
     8.0337   8.2439   8.7158   8.9602   9.1315   9.2033   9.3483   9.3498
     9.4427   9.6167   9.7043

          k = 0.0253 0.0000 0.0000 ( 34707 PWs)   bands (ev):

   -58.3041 -58.2691 -57.3857 -57.3807 -57.3473 -57.3096 -57.2583 -57.0893
   -57.0626 -57.0576 -57.0189 -56.9202 -56.8951 -56.8850 -56.8001 -56.7616
   -34.7497 -34.5727 -34.5439 -34.5099 -34.4158 -34.3589 -33.8813 -33.8707
   -33.7508 -33.6697 -33.6355 -33.5928 -33.5639 -33.5539 -33.5498 -33.5413
   -33.5296 -33.5179 -33.4889 -33.4879 -33.4725 -33.4695 -33.4674 -33.4501
   -33.3395 -33.3360 -33.3280 -33.3266 -33.3114 -33.2865 -33.2811 -33.2621
   -33.2460 -33.2351 -33.2348 -33.2255 -33.1965 -33.1752 -33.1388 -33.1384
   -33.1000 -33.0781 -33.0490 -33.0319 -33.0134 -32.9889 -32.9473 -32.8815
   -18.4248 -17.9987 -17.7904 -17.7845 -17.5610 -17.4569 -17.4489 -17.3834
   -17.3619 -17.3211 -17.1065 -17.0381 -17.0127 -16.9789 -16.9262 -16.8920
   -16.8574 -16.7945 -16.7643 -16.7423 -16.6384 -16.5963 -16.5869 -16.5791
   -16.4642 -16.4433 -16.3999 -16.3836 -16.3232 -16.1449 -16.0860 -15.5985
   -15.5386 -11.2424  -5.9230  -5.3903  -5.2144  -5.1992  -5.0738  -5.0242
    -4.9700  -4.9217  -4.8799  -4.7346  -4.6979  -4.5834  -4.5797  -4.5122
    -4.4844  -4.4088  -4.3276  -4.2650  -4.2581  -4.2033  -4.1956  -4.1056
    -4.0295  -3.9969  -3.9899  -3.9154  -3.8995  -3.8578  -3.8496  -3.8192
    -3.7635  -3.7218  -3.6757  -3.6026  -3.5667  -3.5535  -3.5233  -3.5038
    -3.4471  -3.4151  -3.3185  -3.3160  -3.2734  -3.2577  -3.2375  -3.1513
    -3.0127  -2.9025  -2.8381  -2.8178  -2.7731  -2.7430  -2.7006  -2.6701
    -2.6116  -2.5579  -2.5400  -2.4993  -2.4348  -2.3813  -2.3322  -2.2657
    -2.2470  -2.1983  -2.0898  -2.0451  -2.0041  -1.9560  -1.8826  -1.8499
    -1.8268  -1.7973  -1.7120  -1.6241  -1.5781  -1.5704  -1.5444  -1.5082
    -1.4769  -1.4323  -1.4281  -1.3925  -1.3334  -1.3032  -1.2917  -1.2204
    -1.1858  -1.1549  -1.1052  -1.0800  -1.0409  -1.0214  -0.9556  -0.9108
    -0.8340  -0.8256  -0.6701  -0.6431  -0.6061  -0.5883  -0.5569  -0.2457
     1.1093   1.1239   1.4175   1.7843   1.8205   1.9056   1.9320   2.0511
     2.0870   2.1189   2.2054   2.2462   2.3395   2.3849   2.4431   2.5071
     2.5294   2.5981   2.6302   2.6494   2.6797   2.7045   2.8137   2.8278
     2.8477   2.8512   2.8928   2.9019   2.9469   3.0286   3.0769   3.1355
     3.1922   3.2041   3.2173   3.2189   3.2435   3.3108   3.4085   3.4439
     3.4901   3.5458   3.5941   3.6361   3.7011   3.7658   3.7870   3.9106
     4.0536   4.1922   4.2658   4.4272   4.5827   4.6252   4.8113   4.8298
     4.9612   4.9855   5.0888   5.1729   5.3056   5.3183   5.4295   5.5286
     5.5596   5.7111   5.7431   5.9068   5.9148   5.9399   5.9632   5.9872
     6.0253   6.0344   6.0714   6.1710   6.2298   6.2624   6.4417   6.4975
     6.5447   6.6163   6.7415   6.8115   7.2579   7.6709   7.7584   8.0202
     8.2279   8.3014   8.3790   8.6947   8.7601   8.9706   9.1063   9.2127
     9.4084   9.4989   9.7808

          k = 0.0253 0.0280 0.0000 ( 34687 PWs)   bands (ev):

   -58.3018 -58.2714 -57.3840 -57.3790 -57.3497 -57.3107 -57.2579 -57.0891
   -57.0627 -57.0558 -57.0209 -56.9179 -56.8953 -56.8873 -56.7976 -56.7642
   -34.7242 -34.5707 -34.5458 -34.5037 -34.4221 -34.3859 -33.8559 -33.8453
   -33.7300 -33.6637 -33.6294 -33.5903 -33.5645 -33.5503 -33.5470 -33.5372
   -33.5292 -33.5174 -33.5158 -33.4957 -33.4884 -33.4657 -33.4637 -33.4442
   -33.3341 -33.3240 -33.3146 -33.3142 -33.3048 -33.3029 -33.2786 -33.2603
   -33.2497 -33.2366 -33.2358 -33.2266 -33.2010 -33.1984 -33.1443 -33.1329
   -33.1126 -33.0746 -33.0551 -33.0299 -33.0144 -32.9937 -32.9746 -32.9100
   -18.3674 -17.9403 -17.7728 -17.7368 -17.5203 -17.5181 -17.4103 -17.3653
   -17.3484 -17.3168 -17.1108 -17.0677 -16.9961 -16.9651 -16.9158 -16.8747
   -16.8278 -16.8024 -16.7930 -16.7307 -16.6678 -16.6639 -16.6113 -16.5473
   -16.4856 -16.4631 -16.4081 -16.4032 -16.3548 -16.1636 -16.1281 -15.6126
   -15.5642 -11.2433  -5.8380  -5.3068  -5.1413  -5.1255  -4.9907  -4.9541
    -4.9250  -4.9043  -4.8192  -4.6952  -4.6743  -4.6331  -4.5310  -4.4954
    -4.4368  -4.3989  -4.3106  -4.2917  -4.2416  -4.2107  -4.1816  -4.1530
    -4.1243  -4.0926  -4.0303  -3.9980  -3.9535  -3.9403  -3.8982  -3.8329
    -3.7959  -3.7824  -3.7218  -3.6875  -3.6540  -3.6132  -3.5260  -3.4022
    -3.3456  -3.3241  -3.3138  -3.2645  -3.2348  -3.1897  -3.1149  -3.0938
    -2.9275  -2.8927  -2.8380  -2.7772  -2.7474  -2.7094  -2.6776  -2.6376
    -2.6085  -2.5216  -2.4982  -2.4685  -2.4501  -2.3808  -2.3274  -2.3028
    -2.2263  -2.1869  -2.1267  -2.0623  -2.0123  -1.9517  -1.9352  -1.9068
[...]
    -1.7279  -1.5049  -1.4637  -1.4524  -1.4335  -1.3962  -1.3170  -1.1528
    -1.1429  -1.0859  -1.0685  -1.0529  -0.9688  -0.9093  -0.8699  -0.7855
    -0.7319  -0.7250  -0.6958  -0.6686  -0.5933  -0.5718  -0.5579   0.3033
     1.6035   1.6069   1.6195   1.6248   1.9673   1.9681   2.0970   2.0980
     2.2806   2.3014   2.3146   2.3964   2.4194   2.4894   2.5757   2.6355
     2.6574   2.7020   2.7855   2.8188   2.8757   2.9275   2.9496   2.9776
     2.9922   3.0008   3.0417   3.0997   3.1141   3.2111   3.2367   3.2458
     3.2615   3.2853   3.3427   3.3889   3.4023   3.4078   3.4642   3.4753
     3.4854   3.5133   3.5278   3.5817   3.6388   3.6557   3.7783   3.8793
     3.9150   3.9255   4.1422   4.1427   4.5925   4.6218   4.6442   4.7296
     4.8846   4.9008   4.9334   5.0837   5.1626   5.1676   5.1868   5.4489
     5.6754   5.6844   5.6955   5.9282   5.9336   5.9675   6.0180   6.0205
     6.0955   6.1077   6.1767   6.2682   6.2726   6.2805   6.3849   6.4623
     6.5012   6.6079   7.0655   7.2294   7.3344   7.3981   7.5546   7.5912
     7.7177   7.7687   7.9218   8.1120   8.2952   8.3434   8.4507   8.8689
     9.0247   9.0642   9.2125

          k =-0.0253 0.0280 0.0000 ( 34687 PWs)   bands (ev):

   -58.3020 -58.2716 -57.3840 -57.3790 -57.3496 -57.3108 -57.2588 -57.0932
   -57.0640 -57.0571 -57.0221 -56.9194 -56.9187 -56.8881 -56.8012 -56.7678
   -34.7244 -34.5709 -34.5460 -34.5038 -34.4223 -34.3861 -33.8558 -33.8453
   -33.7308 -33.6637 -33.6294 -33.5905 -33.5645 -33.5504 -33.5470 -33.5380
   -33.5300 -33.5175 -33.5157 -33.4957 -33.4894 -33.4663 -33.4653 -33.4465
   -33.3349 -33.3256 -33.3182 -33.3153 -33.3098 -33.3042 -33.2801 -33.2610
   -33.2504 -33.2373 -33.2372 -33.2284 -33.2110 -33.2016 -33.1642 -33.1336
   -33.1309 -33.0780 -33.0558 -33.0375 -33.0185 -32.9970 -32.9754 -32.9128
   -18.3671 -17.9380 -17.7726 -17.7305 -17.5197 -17.5132 -17.3722 -17.3651
   -17.3419 -17.3121 -17.1084 -17.0655 -16.9808 -16.9357 -16.8697 -16.8272
   -16.7890 -16.7471 -16.7294 -16.6660 -16.6595 -16.5796 -16.5405 -16.4820
   -16.4579 -16.4022 -16.3627 -16.3447 -16.1532 -16.1187 -15.8786 -15.6090
   -15.5603 -10.8422  -5.8380  -5.3065  -5.1404  -5.1223  -4.9904  -4.9495
    -4.9105  -4.8217  -4.6952  -4.6744  -4.6332  -4.5330  -4.4951  -4.4386
    -4.4050  -4.3103  -4.2870  -4.2470  -4.2002  -4.1797  -4.1386  -4.1239
    -4.0901  -4.0433  -4.0060  -3.9889  -3.9529  -3.9102  -3.8784  -3.7973
    -3.7840  -3.7268  -3.7206  -3.6279  -3.6196  -3.5797  -3.5024  -3.3915
    -3.3435  -3.3175  -3.2976  -3.2607  -3.2219  -3.1799  -3.1099  -3.0932
    -2.9173  -2.8802  -2.8199  -2.7751  -2.7187  -2.6848  -2.6714  -2.6144
    -2.5858  -2.5063  -2.4967  -2.4398  -2.4084  -2.3555  -2.2851  -2.2627
    -2.2109  -2.1896  -2.1015  -2.0397  -1.9565  -1.9381  -1.9134  -1.8480
    -1.8365  -1.7883  -1.7430  -1.6819  -1.6328  -1.5922  -1.5594  -1.5078
    -1.4739  -1.4329  -1.4041  -1.3781  -1.3594  -1.3435  -1.3116  -1.2878
    -1.2025  -1.1222  -1.0605  -1.0078  -0.9843  -0.9508  -0.9266  -0.8821
    -0.8402  -0.8177  -0.6289  -0.6071  -0.5828  -0.5194  -0.2624   0.3274
     1.1553   1.2489   1.4330   1.8222   1.8617   1.9288   1.9653   2.0327
     2.0437   2.1929   2.3037   2.3495   2.3910   2.4340   2.4574   2.5073
     2.5275   2.5517   2.5925   2.6529   2.7009   2.7253   2.7808   2.8352
     2.8800   2.9172   2.9337   2.9770   2.9942   3.0179   3.0439   3.0968
     3.1738   3.1944   3.2368   3.2620   3.2977   3.3399   3.4331   3.4682
     3.4983   3.5611   3.6149   3.6457   3.6670   3.7474   3.8245   3.8686
     4.0156   4.2118   4.2877   4.4392   4.6278   4.7260   4.8473   4.8644
     5.0048   5.0286   5.1160   5.2015   5.2446   5.3601   5.4637   5.5515
     5.6615   5.6981   5.7173   5.8062   5.8529   5.8864   5.9125   5.9348
     5.9698   5.9927   6.0676   6.1260   6.1782   6.2851   6.4014   6.4517
     6.4652   6.5833   6.7541   6.8102   7.3757   7.4870   7.7926   7.8885
     8.0931   8.2303   8.4891   8.5328   8.7868   8.8903   9.0928   9.3091
     9.3747   9.5432   9.6141

          k =-0.0253 0.0560 0.0000 ( 34699 PWs)   bands (ev):

   -58.2956 -58.2780 -57.3808 -57.3737 -57.3560 -57.3130 -57.2580 -57.0927
   -57.0645 -57.0524 -57.0271 -56.9199 -56.9123 -56.8946 -56.7945 -56.7745
   -34.6545 -34.5657 -34.5513 -34.4869 -34.4593 -34.4397 -33.7861 -33.7761
   -33.6801 -33.6484 -33.6126 -33.5891 -33.5850 -33.5841 -33.5727 -33.5659
   -33.5395 -33.5296 -33.5162 -33.4943 -33.4813 -33.4639 -33.4533 -33.4125
   -33.3698 -33.3228 -33.3193 -33.3105 -33.2819 -33.2724 -33.2560 -33.2559
   -33.2550 -33.2457 -33.2423 -33.2290 -33.2195 -33.2127 -33.1795 -33.1601
   -33.1173 -33.0750 -33.0725 -33.0493 -33.0345 -33.0209 -33.0091 -32.9833
   -18.2094 -17.7995 -17.7777 -17.6090 -17.5977 -17.4535 -17.3910 -17.3672
   -17.2462 -17.2390 -17.2015 -17.0555 -16.9458 -16.9169 -16.8787 -16.8379
   -16.7951 -16.7413 -16.7306 -16.7153 -16.6812 -16.5956 -16.5456 -16.5288
   -16.4976 -16.4389 -16.4088 -16.4041 -16.2153 -16.1997 -15.8774 -15.6377
   -15.6141 -10.8441  -5.6028  -5.0792  -5.0216  -4.9535  -4.9212  -4.8148
    -4.7928  -4.7555  -4.6853  -4.6709  -4.5235  -4.5067  -4.4436  -4.3930
    -4.3751  -4.3668  -4.3185  -4.2745  -4.2477  -4.2376  -4.2022  -4.1707
    -4.1300  -4.1193  -4.0536  -4.0176  -3.9922  -3.9529  -3.9259  -3.8878
    -3.8311  -3.8044  -3.7322  -3.6035  -3.5959  -3.5334  -3.4585  -3.3821
    -3.3645  -3.2910  -3.1855  -3.1587  -3.1233  -3.1096  -3.0575  -3.0220
    -2.9811  -2.9246  -2.8414  -2.7913  -2.7597  -2.7023  -2.6075  -2.5881
    -2.5227  -2.5080  -2.4559  -2.3894  -2.3738  -2.3155  -2.2977  -2.2565
    -2.1859  -2.1332  -2.1188  -2.0866  -2.0462  -2.0041  -1.9828  -1.9459
    -1.9288  -1.9035  -1.8905  -1.8441  -1.7654  -1.6999  -1.6876  -1.5912
    -1.5700  -1.5417  -1.5159  -1.4824  -1.4417  -1.4104  -1.3813  -1.3221
    -1.2868  -1.2197  -1.1530  -1.0312  -1.0017  -0.9675  -0.9350  -0.8548
    -0.7605  -0.7335  -0.7023  -0.6375  -0.6066  -0.5530  -0.3596   0.3084
     1.2896   1.4716   1.5669   1.7609   1.7762   1.9146   1.9813   2.0609
     2.2680   2.2786   2.3451   2.3814   2.4179   2.4901   2.5252   2.5508
     2.5755   2.5989   2.6565   2.7086   2.7238   2.7674   2.8099   2.8597
     2.8853   2.9203   2.9646   3.0097   3.0356   3.0490   3.0590   3.1124
     3.1618   3.2017   3.2209   3.2917   3.3205   3.3490   3.3806   3.4606
     3.5122   3.5374   3.6154   3.6370   3.6710   3.7297   3.7487   3.8022
     3.8983   4.1021   4.3949   4.5037   4.7187   4.8618   4.9129   4.9639
     4.9984   5.0927   5.1899   5.2106   5.3391   5.3909   5.4368   5.5312
     5.5670   5.6021   5.6547   5.7124   5.7417   5.8066   5.8231   5.8633
     5.9300   5.9458   5.9963   6.0928   6.1356   6.2140   6.3309   6.4340
     6.4594   6.4773   6.7209   6.7715   7.0734   7.2934   7.6706   7.8295
     8.0942   8.2311   8.3222   8.4924   8.7805   8.8981   9.0086   9.1936
     9.3804   9.5544   9.6437

          k =-0.0506 0.0280 0.0000 ( 34685 PWs)   bands (ev):

   -58.3020 -58.2716 -57.3831 -57.3799 -57.3496 -57.3108 -57.2587 -57.0932
   -57.0637 -57.0574 -57.0221 -56.9194 -56.9187 -56.8881 -56.8012 -56.7678
   -34.7252 -34.5709 -34.5460 -34.5023 -34.4223 -34.3862 -33.8563 -33.8493
   -33.7311 -33.6441 -33.6292 -33.5906 -33.5697 -33.5523 -33.5509 -33.5433
   -33.5303 -33.5249 -33.5146 -33.4956 -33.4895 -33.4665 -33.4540 -33.4476
   -33.3351 -33.3191 -33.3174 -33.3152 -33.3054 -33.3038 -33.2803 -33.2630
   -33.2603 -33.2373 -33.2363 -33.2312 -33.2112 -33.2010 -33.1602 -33.1336
   -33.1312 -33.0781 -33.0558 -33.0445 -33.0169 -32.9970 -32.9754 -32.9128
   -18.2588 -17.8607 -17.8483 -17.6977 -17.5844 -17.4523 -17.4347 -17.3411
   -17.3139 -17.2475 -17.1770 -17.0830 -16.9935 -16.9483 -16.9195 -16.8923
   -16.8072 -16.7641 -16.7529 -16.6930 -16.6301 -16.5463 -16.5196 -16.4861
   -16.4579 -16.4031 -16.3867 -16.3495 -16.1497 -16.1192 -15.8793 -15.6071
   -15.5604 -10.8420  -5.5366  -5.1840  -5.1507  -5.1176  -4.9460  -4.8663
    -4.7644  -4.7065  -4.6794  -4.6491  -4.5982  -4.5841  -4.5299  -4.4042
    -4.3600  -4.3200  -4.2391  -4.2128  -4.1788  -4.1627  -4.1454  -4.0534
    -4.0265  -4.0084  -3.9713  -3.9246  -3.8856  -3.8364  -3.8154  -3.7906
    -3.7234  -3.6824  -3.6624  -3.6001  -3.5784  -3.5342  -3.4846  -3.4537
    -3.3795  -3.3669  -3.3102  -3.2621  -3.2012  -3.1489  -3.1156  -3.0551
    -3.0066  -2.9775  -2.8995  -2.8335  -2.7558  -2.6956  -2.6863  -2.6648
    -2.6137  -2.5912  -2.5790  -2.5226  -2.5140  -2.3908  -2.3383  -2.3299
    -2.2676  -2.1984  -2.1828  -2.1561  -2.0778  -2.0075  -2.0012  -1.9402
    -1.9210  -1.8912  -1.8084  -1.7192  -1.7062  -1.6818  -1.6121  -1.5830
    -1.5211  -1.4731  -1.4513  -1.3916  -1.3761  -1.3247  -1.3091  -1.2579
    -1.2412  -1.1181  -1.0551  -1.0319  -1.0079  -0.9540  -0.9214  -0.8737
    -0.8253  -0.7939  -0.7176  -0.6787  -0.6574  -0.5332  -0.3884   0.3123
     1.1423   1.3422   1.4673   1.5682   1.9361   1.9461   1.9686   2.0604
     2.1266   2.2014   2.2562   2.3320   2.4079   2.4420   2.5307   2.5483
     2.5948   2.6531   2.6897   2.7034   2.7571   2.8307   2.8536   2.8841
     2.9425   2.9486   2.9822   2.9869   2.9934   3.1043   3.1113   3.1400
     3.1877   3.2167   3.2916   3.3123   3.3579   3.3849   3.4089   3.4572
     3.4717   3.5496   3.6041   3.6692   3.7447   3.7813   3.8011   3.9025
     3.9605   4.0635   4.1115   4.4090   4.5125   4.6582   4.7500   4.8112
     4.8438   4.9162   4.9685   5.2910   5.3315   5.4147   5.5294   5.5614
     5.6425   5.7689   5.7889   5.8558   5.9007   5.9153   5.9663   6.0575
     6.0961   6.1673   6.2523   6.3362   6.3887   6.4017   6.4451   6.4921
     6.5434   6.5537   6.7130   6.9180   7.0704   7.2201   7.5526   7.6085
     7.7231   8.2229   8.4096   8.4822   8.8680   8.9434   9.0643   9.2297
     9.4304   9.6109   9.6774

          k =-0.0506 0.0560 0.0000 ( 34596 PWs)   bands (ev):

   -58.2956 -58.2780 -57.3804 -57.3740 -57.3560 -57.3131 -57.2580 -57.0927
   -57.0643 -57.0526 -57.0271 -56.9199 -56.9123 -56.8946 -56.7945 -56.7745
   -34.6551 -34.5657 -34.5512 -34.4855 -34.4595 -34.4393 -33.7863 -33.7806
   -33.6802 -33.6326 -33.6125 -33.5883 -33.5866 -33.5839 -33.5670 -33.5659
   -33.5428 -33.5299 -33.5283 -33.4946 -33.4906 -33.4640 -33.4417 -33.4141
   -33.3701 -33.3227 -33.3081 -33.3056 -33.2845 -33.2746 -33.2572 -33.2558
   -33.2546 -33.2455 -33.2418 -33.2390 -33.2202 -33.2130 -33.1789 -33.1559
   -33.1173 -33.0751 -33.0724 -33.0492 -33.0388 -33.0215 -33.0090 -32.9831
   -18.1062 -17.8172 -17.6998 -17.6118 -17.5956 -17.5558 -17.3787 -17.3673
   -17.2172 -17.2048 -17.1158 -17.0935 -16.9759 -16.9104 -16.8659 -16.8408
   -16.8220 -16.8061 -16.7602 -16.7342 -16.7192 -16.6259 -16.5951 -16.5048
   -16.4945 -16.4364 -16.4193 -16.4092 -16.2148 -16.1961 -15.8773 -15.6364
   -15.6145 -10.8438  -5.3001  -4.9902  -4.9395  -4.9315  -4.7816  -4.7739
    -4.7149  -4.6380  -4.5249  -4.5049  -4.4991  -4.4162  -4.4020  -4.3792
    -4.3595  -4.3259  -4.3078  -4.2463  -4.1986  -4.1744  -4.1643  -4.1129
    -4.1016  -4.0551  -4.0439  -3.9918  -3.9778  -3.9021  -3.8829  -3.8326
    -3.7789  -3.7520  -3.6899  -3.6153  -3.5974  -3.5643  -3.5009  -3.4337
    -3.3968  -3.3195  -3.2604  -3.2293  -3.1356  -3.1313  -3.0793  -3.0522
    -2.9942  -2.9760  -2.9565  -2.9038  -2.7994  -2.7625  -2.7476  -2.7045
    -2.6282  -2.5860  -2.5446  -2.5032  -2.4766  -2.4128  -2.3878  -2.3681
    -2.3495  -2.2881  -2.1936  -2.1709  -2.1457  -2.1270  -2.1007  -2.0462
    -2.0114  -1.9697  -1.9429  -1.8688  -1.8467  -1.7800  -1.7293  -1.6548
    -1.5643  -1.5473  -1.5370  -1.4946  -1.4422  -1.3834  -1.3511  -1.3042
    -1.2426  -1.1734  -1.0752  -1.0201  -0.9867  -0.9013  -0.8506  -0.8433
    -0.7913  -0.7046  -0.6903  -0.6690  -0.6539  -0.5512  -0.4735   0.3107
     1.3102   1.4999   1.6486   1.6703   1.8550   2.0061   2.0346   2.0699
     2.2457   2.2584   2.3625   2.3789   2.4352   2.4638   2.5505   2.5874
     2.6527   2.6978   2.7320   2.7466   2.8138   2.8449   2.8733   2.9057
     2.9364   2.9533   3.0090   3.0441   3.0747   3.1158   3.1473   3.1930
     3.1980   3.2527   3.2870   3.3270   3.3361   3.3792   3.4185   3.4694
     3.4838   3.5514   3.5807   3.6433   3.6700   3.7468   3.8065   3.8424
     3.8852   3.9619   4.1549   4.5057   4.5989   4.6184   4.7567   4.8243
     4.8909   4.9673   5.0125   5.1890   5.3042   5.3782   5.4141   5.4466
     5.5967   5.6185   5.6703   5.7191   5.8817   5.8991   5.9897   6.0086
     6.0703   6.1108   6.1720   6.2088   6.3142   6.3388   6.4136   6.4256
     6.5425   6.6164   6.7631   6.8099   7.1843   7.3567   7.5025   7.6185
     7.9343   8.0135   8.1016   8.3848   8.6068   8.7210   8.8058   9.0393
     9.1993   9.3310   9.4376

     the Fermi energy is    -0.2889 ev

!    total energy              =   -3021.14951472 Ry
     Harris-Foulkes estimate   =   -3021.14951477 Ry
     estimated scf accuracy    <       0.00000032 Ry

     The total energy is the sum of the following terms:

     one-electron contribution =  -40438.67123024 Ry
     hartree contribution      =   20290.73269862 Ry
     xc contribution           =    -553.22195318 Ry
     ewald contribution        =   17680.03076821 Ry
     smearing contrib. (-TS)   =      -0.01979813 Ry

     total magnetization       =     1.06 Bohr mag/cell
     absolute magnetization    =     1.23 Bohr mag/cell

     convergence has been achieved in  10 iterations

     Forces acting on atoms (Ry/au):


     negative rho (up, down):  1.190E-02 1.196E-02
     atom    1 type  1   force =     0.00018659   -0.00089867   -0.10471023
     atom    2 type  2   force =     0.00014578    0.00068236    0.04002754
     atom    3 type  1   force =     0.00075009   -0.00174998   -0.02054882
     atom    4 type  2   force =    -0.00326725    0.00312455   -0.00324355
     atom    5 type  1   force =     0.00034880    0.00006663    0.00032691
     atom    6 type  2   force =    -0.00012614   -0.00009200    0.00023504
     atom    7 type  1   force =    -0.00030570   -0.00012601   -0.00003339
     atom    8 type  2   force =    -0.00017177   -0.00022314   -0.00022194
     atom    9 type  1   force =    -0.00003295    0.00056773   -0.10484130
     atom   10 type  2   force =     0.00034792   -0.00020905    0.03600243
     atom   11 type  1   force =     0.00068244    0.00183861    0.00261184
     atom   12 type  2   force =    -0.00519600   -0.00266688   -0.00520664
     atom   13 type  1   force =     0.00041739    0.00009043   -0.00024884
     atom   14 type  2   force =     0.00013931   -0.00008292   -0.00007750
     atom   15 type  1   force =    -0.00014154    0.00006247    0.00001826
     atom   16 type  2   force =    -0.00020390    0.00002799   -0.00033243
     atom   17 type  2   force =     0.00001147   -0.00001137    0.06654936
     atom   18 type  1   force =     0.00005910    0.00003045    0.13144554
     atom   19 type  2   force =     0.00017923   -0.00052838   -0.08521756
     atom   20 type  2   force =    -0.05792242    0.00014221   -0.03609240
     atom   21 type  2   force =     0.05781544   -0.00004674   -0.03605019
     atom   22 type  1   force =    -0.00042928    0.00074956    0.08016566
     atom   23 type  2   force =     0.00020214   -0.00004859    0.00002839
     atom   24 type  2   force =     0.00064216    0.00186054   -0.03466982
     atom   25 type  2   force =     0.00414254    0.00332791   -0.00510858
     atom   26 type  1   force =     0.00040820   -0.00004349    0.00006801
     atom   27 type  2   force =    -0.00010309   -0.00012406    0.00007397
     atom   28 type  2   force =     0.00005778   -0.00019493   -0.00002701
     atom   29 type  2   force =     0.00000015   -0.00007506    0.00006909
     atom   30 type  1   force =    -0.00023008   -0.00016172    0.00014908
     atom   31 type  2   force =     0.00010846   -0.00002275   -0.00001586
     atom   32 type  2   force =    -0.00009443   -0.00005313    0.00009605
     atom   33 type  2   force =    -0.00016627    0.00005090    0.06628556
     atom   34 type  1   force =     0.00007880   -0.00003195    0.13122583
     atom   35 type  2   force =     0.00018908   -0.00012719   -0.08483108
     atom   36 type  2   force =    -0.05781805    0.00006764   -0.03570269
     atom   37 type  2   force =     0.05799105   -0.00017336   -0.03609785
     atom   38 type  1   force =    -0.00037586   -0.00020430    0.07983838
     atom   39 type  2   force =     0.00008252   -0.00025946   -0.00009430
     atom   40 type  2   force =     0.00048997    0.00124125   -0.03527828
     atom   41 type  2   force =     0.00589144   -0.00243270   -0.00723477
     atom   42 type  1   force =     0.00024564   -0.00006818    0.00001074
     atom   43 type  2   force =    -0.00019739   -0.00010225    0.00006076
     atom   44 type  2   force =     0.00000609   -0.00015745   -0.00003275
     atom   45 type  2   force =     0.00000360   -0.00016829    0.00005739
     atom   46 type  1   force =    -0.00008862   -0.00010556   -0.00006118
     atom   47 type  2   force =    -0.00020345   -0.00025551    0.00025288
     atom   48 type  2   force =    -0.00008379    0.00005554    0.00039946
     atom   49 type  2   force =    -0.00036910   -0.00036145   -0.00024424
     atom   50 type  3   force =    -0.01117996   -0.01650738    0.01320937
     atom   51 type  4   force =     0.01049851    0.01619618   -0.01381747
     atom   52 type  4   force =    -0.00153415   -0.00056307    0.00085676
     atom   53 type  4   force =    -0.00212011   -0.00227550    0.00114722
     atom   54 type  4   force =     0.00023958    0.00096954   -0.00117083

     Total force =     0.343953     Total SCF correction =     0.001579
 !ASE

     Writing output data file calc.save
 
     init_run     :     64.16s CPU     77.13s WALL (       1 calls)
     electrons    :   2804.93s CPU   3247.36s WALL (       1 calls)
     forces       :     49.85s CPU     50.96s WALL (       1 calls)

     Called by init_run:
     wfcinit      :     56.43s CPU     68.51s WALL (       1 calls)
     potinit      :      1.31s CPU      1.54s WALL (       1 calls)

     Called by electrons:
     c_bands      :   2464.08s CPU   2846.81s WALL (      11 calls)
     sum_band     :    295.94s CPU    350.40s WALL (      11 calls)
     v_of_rho     :     11.34s CPU     13.55s WALL (      11 calls)
     newd         :     36.93s CPU     40.37s WALL (      11 calls)
     mix_rho      :      0.37s CPU      0.50s WALL (      11 calls)
     vdW_energy   :      2.55s CPU      2.91s WALL (      12 calls)
     vdW_ffts     :      3.12s CPU      3.89s WALL (      24 calls)
     vdW_v        :      1.29s CPU      1.47s WALL (      12 calls)

     Called by c_bands:
     init_us_2    :      6.81s CPU      7.44s WALL (     960 calls)
     cegterg      :   2424.61s CPU   2804.88s WALL (     440 calls)

     Called by *egterg:
     h_psi        :    960.30s CPU   1249.39s WALL (    2028 calls)
     s_psi        :    163.11s CPU    168.75s WALL (    2028 calls)
     g_psi        :      4.78s CPU      4.91s WALL (    1548 calls)
     cdiaghg      :    752.02s CPU    770.49s WALL (    1948 calls)

     Called by h_psi:
     add_vuspsi   :    164.94s CPU    171.21s WALL (    2028 calls)

     General routines
     calbec       :    243.18s CPU    249.62s WALL (    2508 calls)
     fft          :      6.22s CPU      7.80s WALL (     956 calls)
     ffts         :      0.05s CPU      0.06s WALL (      44 calls)
     fftw         :    550.72s CPU    873.19s WALL (  778392 calls)
     interpolate  :      0.34s CPU      0.49s WALL (      44 calls)
     davcio       :      0.01s CPU      0.85s WALL (      40 calls)
 
     Parallel routines
     fft_scatter  :    284.82s CPU    471.43s WALL (  779392 calls)
 
     PWSCF        : 48m41.48s CPU    56m19.50s WALL

 
   This run was terminated on:   9:18:16  26Feb2018            

=------------------------------------------------------------------------------=
   JOB DONE.
=------------------------------------------------------------------------------=
