  python dir          : /home/vossj/suncat/lib/python2.7/site-packages/espresso
  espresso dir        : /home/vossj/suncat/esdld/espresso-dynpy-beef/bin
  pseudo dir          : /home/alatimer/bin/psp/esp_psp_w_gbrvRu/
  ase-espresso py git : ffa2778-git



     Program PWSCF v.5.1rc2 (svn rev. ) starts on 26Feb2018 at 22:34:39 

     This program is part of the open-source Quantum ESPRESSO suite
     for quantum simulation of materials; please cite
         "P. Giannozzi et al., J. Phys.:Condens. Matter 21 395502 (2009);
          URL http://www.quantum-espresso.org", 
     in publications or presentations arising from this work. More details at
     http://www.quantum-espresso.org/quote

     Parallel version (MPI), running on    16 processors
     R & G space division:  proc/nbgrp/npool/nimage =      16
     Reading input from pw.inp
     Message from routine read_cards :
     DEPRECATED: no units specified in CELL_PARAMETERS card

     Current dimensions of program PWSCF are:
     Max number of different atomic species (ntypx) = 10
     Max number of k-points (npk) =  40000
     Max angular momentum in pseudopotentials (lmaxx) =  3

     **************************************************************************
     Initializing libbeef V0.1.1 with the BEEF-vdW functional.
     Citation: Wellendorff et al., PRB 85, 235149 (2012).
     **************************************************************************


     IMPORTANT: XC functional enforced from input :
     Exchange-correlation      = BEEF ( 1  4 27 13 2)
     Any further DFT definition will be discarded
     Please, verify this is what you really want


     Subspace diagonalization in iterative solution of the eigenvalue problem:
     a serial algorithm will be used

 
     Parallelization info
     --------------------
     sticks:   dense  smooth     PW     G-vecs:    dense   smooth      PW
     Min         281     112     31                68535    17318    2565
     Max         282     113     32                68545    17369    2582
     Sum        4501    1795    503              1096637   277353   41113
 
     Generating pointlists ...
     new r_m :   0.4125 (alat units)  0.7795 (a.u.) for type    1
     new r_m :   0.4125 (alat units)  0.7795 (a.u.) for type    2
     new r_m :   0.4125 (alat units)  0.7795 (a.u.) for type    3
     new r_m :   0.4125 (alat units)  0.7795 (a.u.) for type    4


     bravais-lattice index     =            0
     lattice parameter (alat)  =       1.8897  a.u.
     unit-cell volume          =    7990.9933 (a.u.)^3
     number of atoms/cell      =           54
     number of atomic types    =            4
     number of electrons       =       398.00
     number of Kohn-Sham states=          299
     kinetic-energy cutoff     =      40.4243  Ry
     charge density cutoff     =     404.2426  Ry
     convergence threshold     =      7.3E-07
     mixing beta               =       0.1000
     number of iterations used =           10  plain     mixing
     Exchange-correlation      = BEEF ( 1  4 27 13 2)
     nstep                     =           50


     celldm(1)=   1.889726  celldm(2)=   0.000000  celldm(3)=   0.000000
     celldm(4)=   0.000000  celldm(5)=   0.000000  celldm(6)=   0.000000

     crystal axes: (cart. coord. in units of alat)
               a(1) = (   6.590708   0.000000   0.000000 )  
               a(2) = (   0.000000   5.950229   0.000000 )  
               a(3) = (   0.000000   0.000000  30.195235 )  

     reciprocal axes: (cart. coord. in units 2 pi/alat)
               b(1) = (  0.151729  0.000000  0.000000 )  
               b(2) = (  0.000000  0.168061  0.000000 )  
               b(3) = (  0.000000  0.000000  0.033118 )  


     PseudoPot. # 1 for Ti read from file:
     /home/alatimer/bin/psp/esp_psp_w_gbrvRu/Ti.UPF
     MD5 check sum: 8e4df49b7f0d34bbd5052bf3f5ea0213
     Pseudo is Ultrasoft, Zval = 12.0
     Generated by new atomic code, or converted to UPF format
     Using radial grid of  851 points,  6 beta functions with: 
                l(1) =   0
                l(2) =   0
                l(3) =   1
                l(4) =   1
                l(5) =   2
                l(6) =   2
     Q(r) pseudized with  8 coefficients,  rinner =    1.000   1.000   1.000
                                                       1.000   1.000

     PseudoPot. # 2 for  O read from file:
     /home/alatimer/bin/psp/esp_psp_w_gbrvRu/O.UPF
     MD5 check sum: e057bbcf3229fb5d8c36c0c92f9568b4
     Pseudo is Ultrasoft + core correction, Zval =  6.0
     Generated using "atomic" code by A. Dal Corso  v.5.0.2 svn rev. 9415
     Using radial grid of 1095 points,  4 beta functions with: 
                l(1) =   0
                l(2) =   0
                l(3) =   1
                l(4) =   1
     Q(r) pseudized with 0 coefficients 


     PseudoPot. # 3 for  C read from file:
     /home/alatimer/bin/psp/esp_psp_w_gbrvRu/C.UPF
     MD5 check sum: ab446d787031eba755f1d5ee46644bb0
     Pseudo is Ultrasoft + core correction, Zval =  4.0
     Generated using "atomic" code by A. Dal Corso  v.5.0.2 svn rev. 9415
     Using radial grid of 1073 points,  4 beta functions with: 
                l(1) =   0
                l(2) =   0
                l(3) =   1
                l(4) =   1
     Q(r) pseudized with 0 coefficients 


     PseudoPot. # 4 for  H read from file:
     /home/alatimer/bin/psp/esp_psp_w_gbrvRu/H.UPF
     MD5 check sum: bd57da0722753ddfd9833a65b40bb853
     Pseudo is Ultrasoft, Zval =  1.0
     Generated using "atomic" code by A. Dal Corso  v.5.0.2 svn rev. 9415
     Using radial grid of  929 points,  2 beta functions with: 
                l(1) =   0
                l(2) =   0
     Q(r) pseudized with 0 coefficients 


     vdW kernel table read from file vdW_kernel_table
     MD5 check sum: 095c7af220d748ca6e76c0b4c6cfb241

     atomic species   valence    mass     pseudopotential
        Ti1           12.00    47.88000     Ti( 1.00)
        O1             6.00    15.99940      O( 1.00)
        C1             4.00    12.01100      C( 1.00)
        H1             1.00     1.00794      H( 1.00)

     Starting magnetic structure 
     atomic species   magnetization
        Ti1          0.250
        O1           0.500
        C1           0.750
        H1           0.000

     No symmetry found



   Cartesian axes

     site n.     atom                  positions (alat units)
         1           Ti1 tau(   1) = (   1.6476770   0.7437786   2.6545865  )
         2           O1  tau(   2) = (   1.6476770   2.2313359   3.9361215  )
         3           Ti1 tau(   3) = (   1.6476770   2.2313359   5.9499405  )
         4           O1  tau(   4) = (   0.3661420   0.7437786   5.9499405  )
         5           Ti1 tau(   5) = (   1.6407309   0.9134410   9.3139491  )
         6           O1  tau(   6) = (   1.6648823   2.2608486  10.4895904  )
         7           Ti1 tau(   7) = (   1.7578240   2.2899216  13.0472362  )
         8           O1  tau(   8) = (   0.4801583   0.7600008  12.7739736  )
         9           Ti1 tau(   9) = (   1.6476770   3.7188931   2.6545865  )
        10           O1  tau(  10) = (   1.6476770   5.2064503   3.9361215  )
        11           Ti1 tau(  11) = (   1.6476770   5.2064503   5.9499405  )
        12           O1  tau(  12) = (   0.3661420   3.7188931   5.9499405  )
        13           Ti1 tau(  13) = (   1.6336050   3.7786827   9.1566831  )
        14           O1  tau(  14) = (   1.6678212   5.2513959  10.5409436  )
        15           Ti1 tau(  15) = (   1.7144009   5.2558216  12.3462911  )
        16           O1  tau(  16) = (   0.4635505   3.7986228  12.7318280  )
        17           O1  tau(  17) = (   1.6476770   2.2313359   1.3730516  )
        18           Ti1 tau(  18) = (   4.9430310   2.2313359   2.6545865  )
        19           O1  tau(  19) = (   4.9430310   2.2313359   4.6684056  )
        20           O1  tau(  20) = (   6.2245660   0.7437786   2.6545865  )
        21           O1  tau(  21) = (   3.6614961   0.7437786   2.6545865  )
        22           Ti1 tau(  22) = (   4.9430310   0.7437786   5.9499405  )
        23           O1  tau(  23) = (   1.6683653   2.2752577   7.9427336  )
        24           O1  tau(  24) = (   4.9430310   2.2313359   7.2314755  )
        25           O1  tau(  25) = (   2.9292120   0.7437786   5.9499405  )
        26           Ti1 tau(  26) = (   4.9404121   2.2664794   9.4552217  )
        27           O1  tau(  27) = (   5.0099888   2.2616732  11.2946145  )
        28           O1  tau(  28) = (   6.2612001   0.7714827   9.2659748  )
        29           O1  tau(  29) = (   3.6791272   0.7744986   9.2965846  )
        30           Ti1 tau(  30) = (   5.0117873   0.7976728  12.8161605  )
        31           O1  tau(  31) = (   4.9963122   2.2836652  13.8750618  )
        32           O1  tau(  32) = (   2.9819382   0.7448324  12.7109220  )
        33           O1  tau(  33) = (   1.6476770   5.2064503   1.3730516  )
        34           Ti1 tau(  34) = (   4.9430310   5.2064503   2.6545865  )
        35           O1  tau(  35) = (   4.9430310   5.2064503   4.6684056  )
        36           O1  tau(  36) = (   6.2245660   3.7188931   2.6545865  )
        37           O1  tau(  37) = (   3.6614961   3.7188931   2.6545865  )
        38           Ti1 tau(  38) = (   4.9430310   3.7188931   5.9499405  )
        39           O1  tau(  39) = (   1.6664207   5.2035600   7.9365221  )
        40           O1  tau(  40) = (   4.9430310   5.2064503   7.2314755  )
        41           O1  tau(  41) = (   2.9292120   3.7188931   5.9499405  )
        42           Ti1 tau(  42) = (   4.9524353   5.2460635   9.4426343  )
        43           O1  tau(  43) = (   5.0107556   5.2394944  11.2927493  )
        44           O1  tau(  44) = (   6.2663940   3.7551737   9.2646230  )
        45           O1  tau(  45) = (   3.6780957   3.7542261   9.2971476  )
        46           Ti1 tau(  46) = (   5.0587989   3.7766986  12.8010349  )
        47           O1  tau(  47) = (   5.0196089   5.2502198  13.8813978  )
        48           O1  tau(  48) = (   2.9624133   3.7943242  12.7299881  )
        49           O1  tau(  49) = (   1.7427453   2.2533568  14.8370015  )
        50           C1  tau(  50) = (   2.7196098   4.2826273  16.2318421  )
        51           H1  tau(  51) = (   3.3037454   4.9255546  15.5827400  )
        52           H1  tau(  52) = (   3.3286606   3.7870117  16.9822022  )
        53           H1  tau(  53) = (   2.3125587   3.4026405  15.6029816  )
        54           H1  tau(  54) = (   1.8391288   4.7650601  16.6448379  )

     number of k points=    40  Fermi-Dirac smearing, width (Ry)=  0.0073
                       cart. coord. in units 2pi/alat
        k(    1) = (   0.0000000   0.0000000   0.0000000), wk =   0.0277778
        k(    2) = (   0.0000000   0.0280101   0.0000000), wk =   0.0555556
        k(    3) = (   0.0000000   0.0560203   0.0000000), wk =   0.0555556
        k(    4) = (   0.0000000  -0.0840304   0.0000000), wk =   0.0277778
        k(    5) = (   0.0252881   0.0000000   0.0000000), wk =   0.0555556
        k(    6) = (   0.0252881   0.0280101   0.0000000), wk =   0.0555556
        k(    7) = (   0.0252881   0.0560203   0.0000000), wk =   0.0555556
        k(    8) = (   0.0252881  -0.0840304   0.0000000), wk =   0.0555556
        k(    9) = (   0.0505763   0.0000000   0.0000000), wk =   0.0555556
        k(   10) = (   0.0505763   0.0280101   0.0000000), wk =   0.0555556
        k(   11) = (   0.0505763   0.0560203   0.0000000), wk =   0.0555556
        k(   12) = (   0.0505763  -0.0840304   0.0000000), wk =   0.0555556
        k(   13) = (  -0.0758644   0.0000000   0.0000000), wk =   0.0277778
        k(   14) = (  -0.0758644   0.0280101   0.0000000), wk =   0.0555556
        k(   15) = (  -0.0758644   0.0560203   0.0000000), wk =   0.0555556
        k(   16) = (  -0.0758644  -0.0840304   0.0000000), wk =   0.0277778
        k(   17) = (  -0.0252881   0.0280101   0.0000000), wk =   0.0555556
        k(   18) = (  -0.0252881   0.0560203   0.0000000), wk =   0.0555556
        k(   19) = (  -0.0505763   0.0280101   0.0000000), wk =   0.0555556
        k(   20) = (  -0.0505763   0.0560203   0.0000000), wk =   0.0555556
        k(   21) = (   0.0000000   0.0000000   0.0000000), wk =   0.0277778
        k(   22) = (   0.0000000   0.0280101   0.0000000), wk =   0.0555556
        k(   23) = (   0.0000000   0.0560203   0.0000000), wk =   0.0555556
        k(   24) = (   0.0000000  -0.0840304   0.0000000), wk =   0.0277778
        k(   25) = (   0.0252881   0.0000000   0.0000000), wk =   0.0555556
        k(   26) = (   0.0252881   0.0280101   0.0000000), wk =   0.0555556
        k(   27) = (   0.0252881   0.0560203   0.0000000), wk =   0.0555556
        k(   28) = (   0.0252881  -0.0840304   0.0000000), wk =   0.0555556
        k(   29) = (   0.0505763   0.0000000   0.0000000), wk =   0.0555556
        k(   30) = (   0.0505763   0.0280101   0.0000000), wk =   0.0555556
        k(   31) = (   0.0505763   0.0560203   0.0000000), wk =   0.0555556
        k(   32) = (   0.0505763  -0.0840304   0.0000000), wk =   0.0555556
        k(   33) = (  -0.0758644   0.0000000   0.0000000), wk =   0.0277778
        k(   34) = (  -0.0758644   0.0280101   0.0000000), wk =   0.0555556
        k(   35) = (  -0.0758644   0.0560203   0.0000000), wk =   0.0555556
        k(   36) = (  -0.0758644  -0.0840304   0.0000000), wk =   0.0277778
        k(   37) = (  -0.0252881   0.0280101   0.0000000), wk =   0.0555556
        k(   38) = (  -0.0252881   0.0560203   0.0000000), wk =   0.0555556
        k(   39) = (  -0.0505763   0.0280101   0.0000000), wk =   0.0555556
        k(   40) = (  -0.0505763   0.0560203   0.0000000), wk =   0.0555556

     Dense  grid:  1096637 G-vectors     FFT dimensions: (  80,  72, 375)

     Smooth grid:   277353 G-vectors     FFT dimensions: (  54,  45, 240)

     Largest allocated arrays     est. size (Mb)     dimensions
        Kohn-Sham Wavefunctions         9.95 Mb     (    2180,  299)
        NL pseudopotentials            18.89 Mb     (    2180,  568)
        Each V/rho on FFT grid          4.22 Mb     (  138240,   2)
        Each G-vector array             0.52 Mb     (   68538)
        G-vector shells                 0.25 Mb     (   33046)
     Largest temporary arrays     est. size (Mb)     dimensions
        Auxiliary wavefunctions        39.78 Mb     (    2180, 1196)
        Each subspace H/S matrix       21.83 Mb     (    1196, 1196)
        Each <psi_i|beta_j> matrix      2.59 Mb     (     568,  299)
        Arrays for rho mixing          21.09 Mb     (  138240,   10)

     Check: negative/imaginary core charge=   -0.000049    0.000000

     The initial density is read from file :
     ./calc.save/charge-density.dat


     negative rho (up, down):  1.189E-02 1.196E-02


     ************************************************************************
     *
     * You are using vdW-DF for exchange-correlation in this calculation.
     * Please cite the following three references that made this development
     * possible:
     *
     *   M. Dion, H. Rydberg, E. Schroder, D. C. Langreth, and
     *   B. I. Lundqvist, Phys. Rev. Lett. 92, 246401 (2004).
     *
     *   T. Thonhauser, V. R. Cooper, S. Li, A. Puzder, P. Hyldgaard, and
     *   D. C. Langreth, Phys. Rev. B 76, 125112 (2007).
     *
     *   G. Roman-Perez and J. M. Soler, Phys. Rev. Lett. 103, 096102 (2009).
     *
     *
     * If you are using vdW-DF2, please also cite:
     *
     *   K. Lee, E. D. Murray, L. Kong, B. I. Lundqvist, and
     *   D. C. Langreth, Phys. Rev. B 82, 081101(R) (2010).
     *
     *
     * If you are calculating the stress with vdW-DF, please also cite:
     *
     *   R. Sabatini, E. Kucukbenli, B. Kolb, T. Thonhauser, and
     *   S. de Gironcoli, J. Phys.: Condens. Matter 24, 424209 (2012).
     *
     ************************************************************************

     Carrying out vdW-DF run using the following parameters:

     Nqs =      20    Nr_points =    1024   r_max =   100.000
     q_mesh =
               0.00001000     0.04494208     0.09755937     0.15916263
               0.23128650     0.31572767     0.41458969     0.53033537
               0.66584808     0.82450364     1.01025438     1.22772762
               1.48234092     1.78043706     2.12944203     2.53805004
               3.01644009     3.57652955     4.23227104     5.00000000

     Gradients computed in reciprocal space

     ************************************************************************


     Starting wfc are  300 randomized atomic wfcs

     total cpu time spent up to now is       78.0 secs

     Self-consistent Calculation

     iteration #  1     ecut=    40.42 Ry     beta=0.10
     Davidson diagonalization with overlap
     ethr =  1.00E-05,  avg # of iterations = 14.8

     negative rho (up, down):  1.189E-02 1.196E-02
 
     Magnetic moment per site:
     atom:    1    charge:    3.1245    magn:   -0.0003    constr:    0.0000
     atom:    2    charge:    2.0898    magn:    0.0003    constr:    0.0000
     atom:    3    charge:    3.1198    magn:   -0.0000    constr:    0.0000
     atom:    4    charge:    2.0868    magn:   -0.0001    constr:    0.0000
     atom:    5    charge:    3.1161    magn:   -0.0002    constr:    0.0000
     atom:    6    charge:    2.0794    magn:    0.0021    constr:    0.0000
     atom:    7    charge:    3.1167    magn:   -0.0054    constr:    0.0000
     atom:    8    charge:    2.0791    magn:    0.0251    constr:    0.0000
     atom:    9    charge:    3.1245    magn:   -0.0003    constr:    0.0000
     atom:   10    charge:    2.0899    magn:    0.0003    constr:    0.0000
     atom:   11    charge:    3.1198    magn:   -0.0000    constr:    0.0000
     atom:   12    charge:    2.0871    magn:   -0.0000    constr:    0.0000
     atom:   13    charge:    3.1150    magn:   -0.0002    constr:    0.0000
     atom:   14    charge:    2.0938    magn:    0.0023    constr:    0.0000
     atom:   15    charge:    3.1184    magn:   -0.0008    constr:    0.0000
     atom:   16    charge:    2.0827    magn:    0.0047    constr:    0.0000
     atom:   17    charge:    2.0630    magn:    0.0018    constr:    0.0000
     atom:   18    charge:    3.1240    magn:   -0.0001    constr:    0.0000
     atom:   19    charge:    2.0876    magn:    0.0001    constr:    0.0000
     atom:   20    charge:    2.0847    magn:    0.0002    constr:    0.0000
     atom:   21    charge:    2.0847    magn:    0.0002    constr:    0.0000
     atom:   22    charge:    3.1199    magn:    0.0000    constr:    0.0000
     atom:   23    charge:    2.0908    magn:    0.0002    constr:    0.0000
     atom:   24    charge:    2.0753    magn:   -0.0002    constr:    0.0000
     atom:   25    charge:    2.0868    magn:    0.0000    constr:    0.0000
     atom:   26    charge:    3.1127    magn:   -0.0002    constr:    0.0000
     atom:   27    charge:    2.0801    magn:    0.0025    constr:    0.0000
     atom:   28    charge:    2.0838    magn:    0.0006    constr:    0.0000
     atom:   29    charge:    2.0859    magn:    0.0008    constr:    0.0000
     atom:   30    charge:    3.1171    magn:   -0.0008    constr:    0.0000
     atom:   31    charge:    2.0825    magn:    0.0006    constr:    0.0000
     atom:   32    charge:    2.0828    magn:    0.0065    constr:    0.0000
     atom:   33    charge:    2.0629    magn:    0.0018    constr:    0.0000
     atom:   34    charge:    3.1240    magn:   -0.0001    constr:    0.0000
     atom:   35    charge:    2.0876    magn:    0.0001    constr:    0.0000
     atom:   36    charge:    2.0847    magn:    0.0002    constr:    0.0000
     atom:   37    charge:    2.0847    magn:    0.0002    constr:    0.0000
     atom:   38    charge:    3.1200    magn:    0.0000    constr:    0.0000
     atom:   39    charge:    2.0839    magn:    0.0002    constr:    0.0000
     atom:   40    charge:    2.0756    magn:   -0.0003    constr:    0.0000
     atom:   41    charge:    2.0871    magn:   -0.0000    constr:    0.0000
     atom:   42    charge:    3.1151    magn:   -0.0002    constr:    0.0000
     atom:   43    charge:    2.0801    magn:    0.0030    constr:    0.0000
     atom:   44    charge:    2.0850    magn:    0.0008    constr:    0.0000
     atom:   45    charge:    2.0858    magn:    0.0004    constr:    0.0000
     atom:   46    charge:    3.1147    magn:   -0.0007    constr:    0.0000
     atom:   47    charge:    2.0806    magn:    0.0047    constr:    0.0000
     atom:   48    charge:    2.0833    magn:    0.0138    constr:    0.0000
     atom:   49    charge:    2.0505    magn:    0.2406    constr:    0.0000
     atom:   50    charge:    0.6723    magn:    0.0543    constr:    0.0000
     atom:   51    charge:    0.4219    magn:    0.0008    constr:    0.0000
     atom:   52    charge:    0.4227    magn:    0.0008    constr:    0.0000
     atom:   53    charge:    0.3728    magn:    0.0246    constr:    0.0000
     atom:   54    charge:    0.4231    magn:    0.0006    constr:    0.0000

     total cpu time spent up to now is     1046.5 secs

     total energy              =   -3021.14956461 Ry
     Harris-Foulkes estimate   =   -3021.15056555 Ry
     estimated scf accuracy    <       0.00656916 Ry

     total magnetization       =     1.07 Bohr mag/cell
     absolute magnetization    =     1.24 Bohr mag/cell

     iteration #  2     ecut=    40.42 Ry     beta=0.10
     Davidson diagonalization with overlap
     ethr =  1.65E-06,  avg # of iterations =  5.7

     negative rho (up, down):  1.189E-02 1.196E-02
 
     Magnetic moment per site:
     atom:    1    charge:    3.1244    magn:   -0.0003    constr:    0.0000
     atom:    2    charge:    2.0897    magn:    0.0003    constr:    0.0000
     atom:    3    charge:    3.1198    magn:   -0.0000    constr:    0.0000
     atom:    4    charge:    2.0867    magn:   -0.0001    constr:    0.0000
     atom:    5    charge:    3.1161    magn:   -0.0002    constr:    0.0000
     atom:    6    charge:    2.0795    magn:    0.0021    constr:    0.0000
     atom:    7    charge:    3.1167    magn:   -0.0054    constr:    0.0000
     atom:    8    charge:    2.0792    magn:    0.0251    constr:    0.0000
     atom:    9    charge:    3.1244    magn:   -0.0003    constr:    0.0000
     atom:   10    charge:    2.0898    magn:    0.0003    constr:    0.0000
     atom:   11    charge:    3.1198    magn:   -0.0000    constr:    0.0000
     atom:   12    charge:    2.0871    magn:   -0.0000    constr:    0.0000
     atom:   13    charge:    3.1150    magn:   -0.0002    constr:    0.0000
     atom:   14    charge:    2.0939    magn:    0.0023    constr:    0.0000
     atom:   15    charge:    3.1184    magn:   -0.0008    constr:    0.0000
     atom:   16    charge:    2.0828    magn:    0.0047    constr:    0.0000
     atom:   17    charge:    2.0624    magn:    0.0017    constr:    0.0000
     atom:   18    charge:    3.1240    magn:   -0.0001    constr:    0.0000
     atom:   19    charge:    2.0875    magn:    0.0001    constr:    0.0000
     atom:   20    charge:    2.0847    magn:    0.0002    constr:    0.0000
     atom:   21    charge:    2.0847    magn:    0.0002    constr:    0.0000
     atom:   22    charge:    3.1199    magn:    0.0000    constr:    0.0000
     atom:   23    charge:    2.0908    magn:    0.0002    constr:    0.0000
     atom:   24    charge:    2.0754    magn:   -0.0002    constr:    0.0000
     atom:   25    charge:    2.0868    magn:    0.0000    constr:    0.0000
     atom:   26    charge:    3.1127    magn:   -0.0002    constr:    0.0000
     atom:   27    charge:    2.0802    magn:    0.0025    constr:    0.0000
     atom:   28    charge:    2.0839    magn:    0.0006    constr:    0.0000
     atom:   29    charge:    2.0860    magn:    0.0008    constr:    0.0000
     atom:   30    charge:    3.1171    magn:   -0.0008    constr:    0.0000
     atom:   31    charge:    2.0826    magn:    0.0006    constr:    0.0000
     atom:   32    charge:    2.0829    magn:    0.0065    constr:    0.0000
     atom:   33    charge:    2.0624    magn:    0.0018    constr:    0.0000
     atom:   34    charge:    3.1239    magn:   -0.0001    constr:    0.0000
     atom:   35    charge:    2.0875    magn:    0.0001    constr:    0.0000
     atom:   36    charge:    2.0847    magn:    0.0002    constr:    0.0000
     atom:   37    charge:    2.0847    magn:    0.0002    constr:    0.0000
     atom:   38    charge:    3.1200    magn:    0.0000    constr:    0.0000
     atom:   39    charge:    2.0839    magn:    0.0002    constr:    0.0000
     atom:   40    charge:    2.0757    magn:   -0.0003    constr:    0.0000
     atom:   41    charge:    2.0870    magn:   -0.0000    constr:    0.0000
     atom:   42    charge:    3.1151    magn:   -0.0002    constr:    0.0000
     atom:   43    charge:    2.0803    magn:    0.0030    constr:    0.0000
     atom:   44    charge:    2.0851    magn:    0.0008    constr:    0.0000
     atom:   45    charge:    2.0859    magn:    0.0004    constr:    0.0000
     atom:   46    charge:    3.1147    magn:   -0.0007    constr:    0.0000
     atom:   47    charge:    2.0807    magn:    0.0047    constr:    0.0000
     atom:   48    charge:    2.0834    magn:    0.0138    constr:    0.0000
     atom:   49    charge:    2.0505    magn:    0.2407    constr:    0.0000
     atom:   50    charge:    0.6725    magn:    0.0542    constr:    0.0000
     atom:   51    charge:    0.4219    magn:    0.0008    constr:    0.0000
     atom:   52    charge:    0.4227    magn:    0.0008    constr:    0.0000
     atom:   53    charge:    0.3730    magn:    0.0246    constr:    0.0000
     atom:   54    charge:    0.4231    magn:    0.0006    constr:    0.0000

     total cpu time spent up to now is     1328.5 secs

     total energy              =   -3021.14935371 Ry
     Harris-Foulkes estimate   =   -3021.15069317 Ry
     estimated scf accuracy    <       0.02487578 Ry

     total magnetization       =     1.04 Bohr mag/cell
     absolute magnetization    =     1.22 Bohr mag/cell

     iteration #  3     ecut=    40.42 Ry     beta=0.10
     Davidson diagonalization with overlap
     ethr =  1.65E-06,  avg # of iterations =  5.2

     negative rho (up, down):  1.189E-02 1.195E-02
 
     Magnetic moment per site:
     atom:    1    charge:    3.1244    magn:   -0.0003    constr:    0.0000
     atom:    2    charge:    2.0896    magn:    0.0003    constr:    0.0000
     atom:    3    charge:    3.1198    magn:   -0.0000    constr:    0.0000
     atom:    4    charge:    2.0867    magn:   -0.0001    constr:    0.0000
     atom:    5    charge:    3.1161    magn:   -0.0002    constr:    0.0000
     atom:    6    charge:    2.0795    magn:    0.0021    constr:    0.0000
     atom:    7    charge:    3.1166    magn:   -0.0055    constr:    0.0000
     atom:    8    charge:    2.0791    magn:    0.0254    constr:    0.0000
     atom:    9    charge:    3.1244    magn:   -0.0003    constr:    0.0000
     atom:   10    charge:    2.0898    magn:    0.0003    constr:    0.0000
     atom:   11    charge:    3.1198    magn:   -0.0000    constr:    0.0000
     atom:   12    charge:    2.0870    magn:   -0.0000    constr:    0.0000
     atom:   13    charge:    3.1150    magn:   -0.0002    constr:    0.0000
     atom:   14    charge:    2.0939    magn:    0.0023    constr:    0.0000
     atom:   15    charge:    3.1183    magn:   -0.0008    constr:    0.0000
     atom:   16    charge:    2.0828    magn:    0.0047    constr:    0.0000
     atom:   17    charge:    2.0624    magn:    0.0017    constr:    0.0000
     atom:   18    charge:    3.1240    magn:   -0.0001    constr:    0.0000
     atom:   19    charge:    2.0875    magn:    0.0001    constr:    0.0000
     atom:   20    charge:    2.0847    magn:    0.0002    constr:    0.0000
     atom:   21    charge:    2.0847    magn:    0.0002    constr:    0.0000
     atom:   22    charge:    3.1199    magn:    0.0000    constr:    0.0000
     atom:   23    charge:    2.0908    magn:    0.0002    constr:    0.0000
     atom:   24    charge:    2.0753    magn:   -0.0002    constr:    0.0000
     atom:   25    charge:    2.0867    magn:    0.0000    constr:    0.0000
     atom:   26    charge:    3.1126    magn:   -0.0002    constr:    0.0000
     atom:   27    charge:    2.0803    magn:    0.0025    constr:    0.0000
     atom:   28    charge:    2.0839    magn:    0.0006    constr:    0.0000
     atom:   29    charge:    2.0860    magn:    0.0008    constr:    0.0000
     atom:   30    charge:    3.1171    magn:   -0.0008    constr:    0.0000
     atom:   31    charge:    2.0825    magn:    0.0006    constr:    0.0000
     atom:   32    charge:    2.0829    magn:    0.0065    constr:    0.0000
     atom:   33    charge:    2.0624    magn:    0.0017    constr:    0.0000
     atom:   34    charge:    3.1239    magn:   -0.0001    constr:    0.0000
     atom:   35    charge:    2.0875    magn:    0.0001    constr:    0.0000
     atom:   36    charge:    2.0847    magn:    0.0002    constr:    0.0000
     atom:   37    charge:    2.0847    magn:    0.0002    constr:    0.0000
     atom:   38    charge:    3.1200    magn:    0.0000    constr:    0.0000
     atom:   39    charge:    2.0839    magn:    0.0002    constr:    0.0000
     atom:   40    charge:    2.0756    magn:   -0.0002    constr:    0.0000
     atom:   41    charge:    2.0870    magn:   -0.0000    constr:    0.0000
     atom:   42    charge:    3.1151    magn:   -0.0002    constr:    0.0000
     atom:   43    charge:    2.0803    magn:    0.0031    constr:    0.0000
     atom:   44    charge:    2.0851    magn:    0.0008    constr:    0.0000
     atom:   45    charge:    2.0858    magn:    0.0004    constr:    0.0000
     atom:   46    charge:    3.1147    magn:   -0.0007    constr:    0.0000
     atom:   47    charge:    2.0807    magn:    0.0047    constr:    0.0000
     atom:   48    charge:    2.0833    magn:    0.0141    constr:    0.0000
     atom:   49    charge:    2.0499    magn:    0.2418    constr:    0.0000
     atom:   50    charge:    0.6740    magn:    0.0536    constr:    0.0000
     atom:   51    charge:    0.4217    magn:    0.0006    constr:    0.0000
     atom:   52    charge:    0.4228    magn:    0.0008    constr:    0.0000
     atom:   53    charge:    0.3738    magn:    0.0239    constr:    0.0000
     atom:   54    charge:    0.4231    magn:    0.0006    constr:    0.0000

     total cpu time spent up to now is     1601.7 secs

     total energy              =   -3021.14968698 Ry
     Harris-Foulkes estimate   =   -3021.15006939 Ry
     estimated scf accuracy    <       0.00185110 Ry

     total magnetization       =     1.06 Bohr mag/cell
     absolute magnetization    =     1.23 Bohr mag/cell

     iteration #  4     ecut=    40.42 Ry     beta=0.10
     Davidson diagonalization with overlap
     ethr =  4.65E-07,  avg # of iterations =  5.0

     negative rho (up, down):  1.189E-02 1.195E-02
 
     Magnetic moment per site:
     atom:    1    charge:    3.1244    magn:   -0.0003    constr:    0.0000
     atom:    2    charge:    2.0896    magn:    0.0003    constr:    0.0000
     atom:    3    charge:    3.1198    magn:   -0.0000    constr:    0.0000
     atom:    4    charge:    2.0867    magn:   -0.0001    constr:    0.0000
     atom:    5    charge:    3.1161    magn:   -0.0002    constr:    0.0000
     atom:    6    charge:    2.0795    magn:    0.0021    constr:    0.0000
     atom:    7    charge:    3.1166    magn:   -0.0056    constr:    0.0000
     atom:    8    charge:    2.0791    magn:    0.0255    constr:    0.0000
     atom:    9    charge:    3.1244    magn:   -0.0003    constr:    0.0000
     atom:   10    charge:    2.0898    magn:    0.0003    constr:    0.0000
     atom:   11    charge:    3.1198    magn:   -0.0000    constr:    0.0000
     atom:   12    charge:    2.0870    magn:   -0.0000    constr:    0.0000
     atom:   13    charge:    3.1150    magn:   -0.0002    constr:    0.0000
     atom:   14    charge:    2.0939    magn:    0.0023    constr:    0.0000
     atom:   15    charge:    3.1183    magn:   -0.0008    constr:    0.0000
     atom:   16    charge:    2.0828    magn:    0.0047    constr:    0.0000
     atom:   17    charge:    2.0623    magn:    0.0016    constr:    0.0000
     atom:   18    charge:    3.1239    magn:   -0.0001    constr:    0.0000
     atom:   19    charge:    2.0875    magn:    0.0001    constr:    0.0000
     atom:   20    charge:    2.0847    magn:    0.0001    constr:    0.0000
     atom:   21    charge:    2.0847    magn:    0.0001    constr:    0.0000
     atom:   22    charge:    3.1199    magn:    0.0000    constr:    0.0000
     atom:   23    charge:    2.0908    magn:    0.0002    constr:    0.0000
     atom:   24    charge:    2.0754    magn:   -0.0001    constr:    0.0000
     atom:   25    charge:    2.0867    magn:    0.0000    constr:    0.0000
     atom:   26    charge:    3.1127    magn:   -0.0002    constr:    0.0000
     atom:   27    charge:    2.0803    magn:    0.0025    constr:    0.0000
     atom:   28    charge:    2.0839    magn:    0.0006    constr:    0.0000
     atom:   29    charge:    2.0860    magn:    0.0008    constr:    0.0000
     atom:   30    charge:    3.1172    magn:   -0.0008    constr:    0.0000
     atom:   31    charge:    2.0825    magn:    0.0006    constr:    0.0000
     atom:   32    charge:    2.0829    magn:    0.0066    constr:    0.0000
     atom:   33    charge:    2.0623    magn:    0.0016    constr:    0.0000
     atom:   34    charge:    3.1239    magn:   -0.0001    constr:    0.0000
     atom:   35    charge:    2.0876    magn:    0.0001    constr:    0.0000
     atom:   36    charge:    2.0847    magn:    0.0001    constr:    0.0000
     atom:   37    charge:    2.0847    magn:    0.0001    constr:    0.0000
     atom:   38    charge:    3.1200    magn:    0.0000    constr:    0.0000
     atom:   39    charge:    2.0839    magn:    0.0002    constr:    0.0000
     atom:   40    charge:    2.0756    magn:   -0.0002    constr:    0.0000
     atom:   41    charge:    2.0870    magn:   -0.0000    constr:    0.0000
     atom:   42    charge:    3.1151    magn:   -0.0002    constr:    0.0000
     atom:   43    charge:    2.0803    magn:    0.0031    constr:    0.0000
     atom:   44    charge:    2.0851    magn:    0.0009    constr:    0.0000
     atom:   45    charge:    2.0859    magn:    0.0004    constr:    0.0000
     atom:   46    charge:    3.1147    magn:   -0.0007    constr:    0.0000
     atom:   47    charge:    2.0805    magn:    0.0048    constr:    0.0000
     atom:   48    charge:    2.0833    magn:    0.0142    constr:    0.0000
     atom:   49    charge:    2.0499    magn:    0.2423    constr:    0.0000
     atom:   50    charge:    0.6742    magn:    0.0533    constr:    0.0000
     atom:   51    charge:    0.4217    magn:    0.0006    constr:    0.0000
     atom:   52    charge:    0.4228    magn:    0.0008    constr:    0.0000
     atom:   53    charge:    0.3741    magn:    0.0237    constr:    0.0000
     atom:   54    charge:    0.4231    magn:    0.0006    constr:    0.0000

     total cpu time spent up to now is     1877.8 secs

     total energy              =   -3021.14979379 Ry
     Harris-Foulkes estimate   =   -3021.14983763 Ry
     estimated scf accuracy    <       0.00050642 Ry

     total magnetization       =     1.06 Bohr mag/cell
     absolute magnetization    =     1.23 Bohr mag/cell

     iteration #  5     ecut=    40.42 Ry     beta=0.10
     Davidson diagonalization with overlap
     ethr =  1.27E-07,  avg # of iterations =  1.5

     negative rho (up, down):  1.189E-02 1.195E-02
 
     Magnetic moment per site:
     atom:    1    charge:    3.1244    magn:   -0.0003    constr:    0.0000
     atom:    2    charge:    2.0897    magn:    0.0003    constr:    0.0000
     atom:    3    charge:    3.1198    magn:   -0.0000    constr:    0.0000
     atom:    4    charge:    2.0867    magn:   -0.0001    constr:    0.0000
     atom:    5    charge:    3.1161    magn:   -0.0002    constr:    0.0000
     atom:    6    charge:    2.0795    magn:    0.0021    constr:    0.0000
     atom:    7    charge:    3.1167    magn:   -0.0056    constr:    0.0000
     atom:    8    charge:    2.0793    magn:    0.0256    constr:    0.0000
     atom:    9    charge:    3.1244    magn:   -0.0003    constr:    0.0000
     atom:   10    charge:    2.0898    magn:    0.0003    constr:    0.0000
     atom:   11    charge:    3.1198    magn:   -0.0000    constr:    0.0000
     atom:   12    charge:    2.0871    magn:   -0.0000    constr:    0.0000
     atom:   13    charge:    3.1150    magn:   -0.0002    constr:    0.0000
     atom:   14    charge:    2.0939    magn:    0.0023    constr:    0.0000
     atom:   15    charge:    3.1184    magn:   -0.0008    constr:    0.0000
     atom:   16    charge:    2.0828    magn:    0.0047    constr:    0.0000
     atom:   17    charge:    2.0624    magn:    0.0015    constr:    0.0000
     atom:   18    charge:    3.1239    magn:   -0.0001    constr:    0.0000
     atom:   19    charge:    2.0876    magn:    0.0001    constr:    0.0000
     atom:   20    charge:    2.0847    magn:    0.0001    constr:    0.0000
     atom:   21    charge:    2.0847    magn:    0.0001    constr:    0.0000
     atom:   22    charge:    3.1199    magn:    0.0000    constr:    0.0000
     atom:   23    charge:    2.0908    magn:    0.0002    constr:    0.0000
     atom:   24    charge:    2.0754    magn:   -0.0001    constr:    0.0000
     atom:   25    charge:    2.0867    magn:    0.0000    constr:    0.0000
     atom:   26    charge:    3.1127    magn:   -0.0002    constr:    0.0000
     atom:   27    charge:    2.0803    magn:    0.0026    constr:    0.0000
     atom:   28    charge:    2.0839    magn:    0.0006    constr:    0.0000
     atom:   29    charge:    2.0860    magn:    0.0008    constr:    0.0000
     atom:   30    charge:    3.1171    magn:   -0.0008    constr:    0.0000
     atom:   31    charge:    2.0823    magn:    0.0006    constr:    0.0000
     atom:   32    charge:    2.0829    magn:    0.0066    constr:    0.0000
     atom:   33    charge:    2.0624    magn:    0.0015    constr:    0.0000
     atom:   34    charge:    3.1239    magn:   -0.0001    constr:    0.0000
     atom:   35    charge:    2.0876    magn:    0.0001    constr:    0.0000
     atom:   36    charge:    2.0847    magn:    0.0001    constr:    0.0000
     atom:   37    charge:    2.0847    magn:    0.0001    constr:    0.0000
     atom:   38    charge:    3.1200    magn:    0.0000    constr:    0.0000
     atom:   39    charge:    2.0839    magn:    0.0002    constr:    0.0000
     atom:   40    charge:    2.0756    magn:   -0.0002    constr:    0.0000
     atom:   41    charge:    2.0870    magn:   -0.0000    constr:    0.0000
     atom:   42    charge:    3.1151    magn:   -0.0002    constr:    0.0000
     atom:   43    charge:    2.0803    magn:    0.0031    constr:    0.0000
     atom:   44    charge:    2.0851    magn:    0.0009    constr:    0.0000
     atom:   45    charge:    2.0858    magn:    0.0004    constr:    0.0000
     atom:   46    charge:    3.1148    magn:   -0.0007    constr:    0.0000
     atom:   47    charge:    2.0804    magn:    0.0048    constr:    0.0000
     atom:   48    charge:    2.0837    magn:    0.0143    constr:    0.0000
     atom:   49    charge:    2.0508    magn:    0.2429    constr:    0.0000
     atom:   50    charge:    0.6739    magn:    0.0530    constr:    0.0000
     atom:   51    charge:    0.4218    magn:    0.0005    constr:    0.0000
     atom:   52    charge:    0.4228    magn:    0.0009    constr:    0.0000
     atom:   53    charge:    0.3745    magn:    0.0237    constr:    0.0000
     atom:   54    charge:    0.4231    magn:    0.0006    constr:    0.0000

     total cpu time spent up to now is     2087.0 secs

     total energy              =   -3021.14978353 Ry
     Harris-Foulkes estimate   =   -3021.14980860 Ry
     estimated scf accuracy    <       0.00024602 Ry

     total magnetization       =     1.06 Bohr mag/cell
     absolute magnetization    =     1.23 Bohr mag/cell

     iteration #  6     ecut=    40.42 Ry     beta=0.10
     Davidson diagonalization with overlap
     ethr =  6.18E-08,  avg # of iterations =  3.0

     negative rho (up, down):  1.189E-02 1.195E-02
 
     Magnetic moment per site:
     atom:    1    charge:    3.1244    magn:   -0.0002    constr:    0.0000
     atom:    2    charge:    2.0897    magn:    0.0002    constr:    0.0000
     atom:    3    charge:    3.1198    magn:   -0.0000    constr:    0.0000
     atom:    4    charge:    2.0867    magn:   -0.0001    constr:    0.0000
     atom:    5    charge:    3.1161    magn:   -0.0003    constr:    0.0000
     atom:    6    charge:    2.0795    magn:    0.0021    constr:    0.0000
     atom:    7    charge:    3.1168    magn:   -0.0057    constr:    0.0000
     atom:    8    charge:    2.0793    magn:    0.0257    constr:    0.0000
     atom:    9    charge:    3.1244    magn:   -0.0002    constr:    0.0000
     atom:   10    charge:    2.0898    magn:    0.0002    constr:    0.0000
     atom:   11    charge:    3.1198    magn:   -0.0000    constr:    0.0000
     atom:   12    charge:    2.0870    magn:   -0.0000    constr:    0.0000
     atom:   13    charge:    3.1150    magn:   -0.0002    constr:    0.0000
     atom:   14    charge:    2.0939    magn:    0.0023    constr:    0.0000
     atom:   15    charge:    3.1184    magn:   -0.0008    constr:    0.0000
     atom:   16    charge:    2.0829    magn:    0.0048    constr:    0.0000
     atom:   17    charge:    2.0625    magn:    0.0013    constr:    0.0000
     atom:   18    charge:    3.1240    magn:   -0.0001    constr:    0.0000
     atom:   19    charge:    2.0875    magn:    0.0000    constr:    0.0000
     atom:   20    charge:    2.0847    magn:    0.0001    constr:    0.0000
     atom:   21    charge:    2.0847    magn:    0.0001    constr:    0.0000
     atom:   22    charge:    3.1199    magn:    0.0000    constr:    0.0000
     atom:   23    charge:    2.0908    magn:    0.0002    constr:    0.0000
     atom:   24    charge:    2.0754    magn:   -0.0001    constr:    0.0000
     atom:   25    charge:    2.0867    magn:    0.0000    constr:    0.0000
     atom:   26    charge:    3.1127    magn:   -0.0002    constr:    0.0000
     atom:   27    charge:    2.0803    magn:    0.0026    constr:    0.0000
     atom:   28    charge:    2.0839    magn:    0.0007    constr:    0.0000
     atom:   29    charge:    2.0860    magn:    0.0008    constr:    0.0000
     atom:   30    charge:    3.1171    magn:   -0.0008    constr:    0.0000
     atom:   31    charge:    2.0824    magn:    0.0006    constr:    0.0000
     atom:   32    charge:    2.0829    magn:    0.0066    constr:    0.0000
     atom:   33    charge:    2.0624    magn:    0.0013    constr:    0.0000
     atom:   34    charge:    3.1239    magn:   -0.0001    constr:    0.0000
     atom:   35    charge:    2.0875    magn:    0.0000    constr:    0.0000
     atom:   36    charge:    2.0847    magn:    0.0001    constr:    0.0000
     atom:   37    charge:    2.0847    magn:    0.0001    constr:    0.0000
     atom:   38    charge:    3.1200    magn:    0.0000    constr:    0.0000
     atom:   39    charge:    2.0839    magn:    0.0002    constr:    0.0000
     atom:   40    charge:    2.0756    magn:   -0.0002    constr:    0.0000
     atom:   41    charge:    2.0870    magn:   -0.0000    constr:    0.0000
     atom:   42    charge:    3.1151    magn:   -0.0002    constr:    0.0000
     atom:   43    charge:    2.0803    magn:    0.0032    constr:    0.0000
     atom:   44    charge:    2.0851    magn:    0.0009    constr:    0.0000
     atom:   45    charge:    2.0858    magn:    0.0005    constr:    0.0000
     atom:   46    charge:    3.1148    magn:   -0.0007    constr:    0.0000
     atom:   47    charge:    2.0806    magn:    0.0048    constr:    0.0000
     atom:   48    charge:    2.0838    magn:    0.0144    constr:    0.0000
     atom:   49    charge:    2.0514    magn:    0.2437    constr:    0.0000
     atom:   50    charge:    0.6733    magn:    0.0525    constr:    0.0000
     atom:   51    charge:    0.4220    magn:    0.0005    constr:    0.0000
     atom:   52    charge:    0.4228    magn:    0.0010    constr:    0.0000
     atom:   53    charge:    0.3749    magn:    0.0238    constr:    0.0000
     atom:   54    charge:    0.4232    magn:    0.0007    constr:    0.0000

     total cpu time spent up to now is     2323.1 secs

     total energy              =   -3021.14979027 Ry
     Harris-Foulkes estimate   =   -3021.14979339 Ry
     estimated scf accuracy    <       0.00009194 Ry

     total magnetization       =     1.06 Bohr mag/cell
     absolute magnetization    =     1.23 Bohr mag/cell

     iteration #  7     ecut=    40.42 Ry     beta=0.10
     Davidson diagonalization with overlap
     ethr =  2.31E-08,  avg # of iterations =  3.0

     negative rho (up, down):  1.189E-02 1.195E-02
 
     Magnetic moment per site:
     atom:    1    charge:    3.1244    magn:   -0.0002    constr:    0.0000
     atom:    2    charge:    2.0897    magn:    0.0002    constr:    0.0000
     atom:    3    charge:    3.1198    magn:   -0.0000    constr:    0.0000
     atom:    4    charge:    2.0867    magn:   -0.0001    constr:    0.0000
     atom:    5    charge:    3.1161    magn:   -0.0003    constr:    0.0000
     atom:    6    charge:    2.0795    magn:    0.0022    constr:    0.0000
     atom:    7    charge:    3.1168    magn:   -0.0058    constr:    0.0000
     atom:    8    charge:    2.0793    magn:    0.0257    constr:    0.0000
     atom:    9    charge:    3.1244    magn:   -0.0002    constr:    0.0000
     atom:   10    charge:    2.0898    magn:    0.0002    constr:    0.0000
     atom:   11    charge:    3.1198    magn:   -0.0000    constr:    0.0000
     atom:   12    charge:    2.0871    magn:   -0.0000    constr:    0.0000
     atom:   13    charge:    3.1150    magn:   -0.0002    constr:    0.0000
     atom:   14    charge:    2.0939    magn:    0.0023    constr:    0.0000
     atom:   15    charge:    3.1184    magn:   -0.0008    constr:    0.0000
     atom:   16    charge:    2.0829    magn:    0.0048    constr:    0.0000
     atom:   17    charge:    2.0624    magn:    0.0012    constr:    0.0000
     atom:   18    charge:    3.1240    magn:   -0.0000    constr:    0.0000
     atom:   19    charge:    2.0875    magn:    0.0000    constr:    0.0000
     atom:   20    charge:    2.0847    magn:    0.0001    constr:    0.0000
     atom:   21    charge:    2.0847    magn:    0.0001    constr:    0.0000
     atom:   22    charge:    3.1199    magn:    0.0000    constr:    0.0000
     atom:   23    charge:    2.0908    magn:    0.0003    constr:    0.0000
     atom:   24    charge:    2.0754    magn:   -0.0001    constr:    0.0000
     atom:   25    charge:    2.0867    magn:    0.0000    constr:    0.0000
     atom:   26    charge:    3.1127    magn:   -0.0003    constr:    0.0000
     atom:   27    charge:    2.0802    magn:    0.0027    constr:    0.0000
     atom:   28    charge:    2.0839    magn:    0.0007    constr:    0.0000
     atom:   29    charge:    2.0860    magn:    0.0009    constr:    0.0000
     atom:   30    charge:    3.1171    magn:   -0.0008    constr:    0.0000
     atom:   31    charge:    2.0825    magn:    0.0006    constr:    0.0000
     atom:   32    charge:    2.0829    magn:    0.0066    constr:    0.0000
     atom:   33    charge:    2.0624    magn:    0.0012    constr:    0.0000
     atom:   34    charge:    3.1239    magn:   -0.0000    constr:    0.0000
     atom:   35    charge:    2.0875    magn:    0.0000    constr:    0.0000
     atom:   36    charge:    2.0847    magn:    0.0001    constr:    0.0000
     atom:   37    charge:    2.0847    magn:    0.0001    constr:    0.0000
     atom:   38    charge:    3.1200    magn:    0.0000    constr:    0.0000
     atom:   39    charge:    2.0839    magn:    0.0002    constr:    0.0000
     atom:   40    charge:    2.0756    magn:   -0.0002    constr:    0.0000
     atom:   41    charge:    2.0870    magn:   -0.0000    constr:    0.0000
     atom:   42    charge:    3.1151    magn:   -0.0002    constr:    0.0000
     atom:   43    charge:    2.0803    magn:    0.0032    constr:    0.0000
     atom:   44    charge:    2.0851    magn:    0.0010    constr:    0.0000
     atom:   45    charge:    2.0858    magn:    0.0005    constr:    0.0000
     atom:   46    charge:    3.1148    magn:   -0.0007    constr:    0.0000
     atom:   47    charge:    2.0806    magn:    0.0049    constr:    0.0000
     atom:   48    charge:    2.0838    magn:    0.0145    constr:    0.0000
     atom:   49    charge:    2.0515    magn:    0.2439    constr:    0.0000
     atom:   50    charge:    0.6730    magn:    0.0524    constr:    0.0000
     atom:   51    charge:    0.4221    magn:    0.0005    constr:    0.0000
     atom:   52    charge:    0.4227    magn:    0.0010    constr:    0.0000
     atom:   53    charge:    0.3750    magn:    0.0238    constr:    0.0000
     atom:   54    charge:    0.4232    magn:    0.0007    constr:    0.0000

     total cpu time spent up to now is     2561.9 secs

     total energy              =   -3021.14979567 Ry
     Harris-Foulkes estimate   =   -3021.14979661 Ry
     estimated scf accuracy    <       0.00002668 Ry

     total magnetization       =     1.06 Bohr mag/cell
     absolute magnetization    =     1.23 Bohr mag/cell

     iteration #  8     ecut=    40.42 Ry     beta=0.10
     Davidson diagonalization with overlap
     ethr =  6.70E-09,  avg # of iterations =  2.1

     negative rho (up, down):  1.189E-02 1.195E-02
 
     Magnetic moment per site:
     atom:    1    charge:    3.1244    magn:   -0.0002    constr:    0.0000
     atom:    2    charge:    2.0897    magn:    0.0002    constr:    0.0000
     atom:    3    charge:    3.1198    magn:   -0.0000    constr:    0.0000
     atom:    4    charge:    2.0867    magn:   -0.0001    constr:    0.0000
     atom:    5    charge:    3.1161    magn:   -0.0003    constr:    0.0000
     atom:    6    charge:    2.0795    magn:    0.0022    constr:    0.0000
     atom:    7    charge:    3.1167    magn:   -0.0058    constr:    0.0000
     atom:    8    charge:    2.0792    magn:    0.0258    constr:    0.0000
     atom:    9    charge:    3.1244    magn:   -0.0002    constr:    0.0000
     atom:   10    charge:    2.0898    magn:    0.0002    constr:    0.0000
     atom:   11    charge:    3.1198    magn:   -0.0000    constr:    0.0000
     atom:   12    charge:    2.0870    magn:   -0.0000    constr:    0.0000
     atom:   13    charge:    3.1150    magn:   -0.0002    constr:    0.0000
     atom:   14    charge:    2.0939    magn:    0.0023    constr:    0.0000
     atom:   15    charge:    3.1184    magn:   -0.0008    constr:    0.0000
     atom:   16    charge:    2.0829    magn:    0.0048    constr:    0.0000
     atom:   17    charge:    2.0624    magn:    0.0011    constr:    0.0000
     atom:   18    charge:    3.1240    magn:   -0.0000    constr:    0.0000
     atom:   19    charge:    2.0875    magn:    0.0000    constr:    0.0000
     atom:   20    charge:    2.0847    magn:    0.0001    constr:    0.0000
     atom:   21    charge:    2.0847    magn:    0.0001    constr:    0.0000
     atom:   22    charge:    3.1199    magn:    0.0000    constr:    0.0000
     atom:   23    charge:    2.0908    magn:    0.0003    constr:    0.0000
     atom:   24    charge:    2.0754    magn:   -0.0001    constr:    0.0000
     atom:   25    charge:    2.0867    magn:    0.0000    constr:    0.0000
     atom:   26    charge:    3.1127    magn:   -0.0003    constr:    0.0000
     atom:   27    charge:    2.0802    magn:    0.0027    constr:    0.0000
     atom:   28    charge:    2.0839    magn:    0.0007    constr:    0.0000
     atom:   29    charge:    2.0860    magn:    0.0009    constr:    0.0000
     atom:   30    charge:    3.1171    magn:   -0.0008    constr:    0.0000
     atom:   31    charge:    2.0825    magn:    0.0006    constr:    0.0000
     atom:   32    charge:    2.0829    magn:    0.0066    constr:    0.0000
     atom:   33    charge:    2.0624    magn:    0.0011    constr:    0.0000
     atom:   34    charge:    3.1239    magn:   -0.0000    constr:    0.0000
     atom:   35    charge:    2.0875    magn:    0.0000    constr:    0.0000
     atom:   36    charge:    2.0847    magn:    0.0001    constr:    0.0000
     atom:   37    charge:    2.0847    magn:    0.0001    constr:    0.0000
     atom:   38    charge:    3.1200    magn:    0.0000    constr:    0.0000
     atom:   39    charge:    2.0839    magn:    0.0002    constr:    0.0000
     atom:   40    charge:    2.0756    magn:   -0.0001    constr:    0.0000
     atom:   41    charge:    2.0870    magn:   -0.0000    constr:    0.0000
     atom:   42    charge:    3.1151    magn:   -0.0002    constr:    0.0000
     atom:   43    charge:    2.0803    magn:    0.0033    constr:    0.0000
     atom:   44    charge:    2.0851    magn:    0.0010    constr:    0.0000
     atom:   45    charge:    2.0858    magn:    0.0005    constr:    0.0000
     atom:   46    charge:    3.1148    magn:   -0.0007    constr:    0.0000
     atom:   47    charge:    2.0806    magn:    0.0049    constr:    0.0000
     atom:   48    charge:    2.0837    magn:    0.0145    constr:    0.0000
     atom:   49    charge:    2.0515    magn:    0.2442    constr:    0.0000
     atom:   50    charge:    0.6729    magn:    0.0523    constr:    0.0000
     atom:   51    charge:    0.4222    magn:    0.0005    constr:    0.0000
     atom:   52    charge:    0.4227    magn:    0.0011    constr:    0.0000
     atom:   53    charge:    0.3750    magn:    0.0239    constr:    0.0000
     atom:   54    charge:    0.4232    magn:    0.0007    constr:    0.0000

     total cpu time spent up to now is     2781.6 secs

     total energy              =   -3021.14979726 Ry
     Harris-Foulkes estimate   =   -3021.14979735 Ry
     estimated scf accuracy    <       0.00000715 Ry

     total magnetization       =     1.06 Bohr mag/cell
     absolute magnetization    =     1.23 Bohr mag/cell

     iteration #  9     ecut=    40.42 Ry     beta=0.10
     Davidson diagonalization with overlap
     ethr =  1.80E-09,  avg # of iterations =  3.0

     negative rho (up, down):  1.189E-02 1.195E-02
 
     Magnetic moment per site:
     atom:    1    charge:    3.1244    magn:   -0.0002    constr:    0.0000
     atom:    2    charge:    2.0897    magn:    0.0002    constr:    0.0000
     atom:    3    charge:    3.1198    magn:   -0.0000    constr:    0.0000
     atom:    4    charge:    2.0867    magn:   -0.0001    constr:    0.0000
     atom:    5    charge:    3.1161    magn:   -0.0003    constr:    0.0000
     atom:    6    charge:    2.0795    magn:    0.0022    constr:    0.0000
     atom:    7    charge:    3.1167    magn:   -0.0058    constr:    0.0000
     atom:    8    charge:    2.0792    magn:    0.0258    constr:    0.0000
     atom:    9    charge:    3.1244    magn:   -0.0002    constr:    0.0000
     atom:   10    charge:    2.0898    magn:    0.0002    constr:    0.0000
     atom:   11    charge:    3.1198    magn:   -0.0000    constr:    0.0000
     atom:   12    charge:    2.0870    magn:   -0.0000    constr:    0.0000
     atom:   13    charge:    3.1150    magn:   -0.0002    constr:    0.0000
     atom:   14    charge:    2.0939    magn:    0.0023    constr:    0.0000
     atom:   15    charge:    3.1184    magn:   -0.0008    constr:    0.0000
     atom:   16    charge:    2.0828    magn:    0.0048    constr:    0.0000
     atom:   17    charge:    2.0624    magn:    0.0011    constr:    0.0000
     atom:   18    charge:    3.1239    magn:   -0.0000    constr:    0.0000
     atom:   19    charge:    2.0875    magn:    0.0000    constr:    0.0000
     atom:   20    charge:    2.0847    magn:    0.0001    constr:    0.0000
     atom:   21    charge:    2.0847    magn:    0.0001    constr:    0.0000
     atom:   22    charge:    3.1199    magn:    0.0000    constr:    0.0000
     atom:   23    charge:    2.0908    magn:    0.0003    constr:    0.0000
     atom:   24    charge:    2.0754    magn:   -0.0000    constr:    0.0000
     atom:   25    charge:    2.0867    magn:    0.0000    constr:    0.0000
     atom:   26    charge:    3.1127    magn:   -0.0003    constr:    0.0000
     atom:   27    charge:    2.0803    magn:    0.0027    constr:    0.0000
     atom:   28    charge:    2.0839    magn:    0.0008    constr:    0.0000
     atom:   29    charge:    2.0860    magn:    0.0009    constr:    0.0000
     atom:   30    charge:    3.1171    magn:   -0.0008    constr:    0.0000
     atom:   31    charge:    2.0825    magn:    0.0006    constr:    0.0000
     atom:   32    charge:    2.0829    magn:    0.0067    constr:    0.0000
     atom:   33    charge:    2.0624    magn:    0.0011    constr:    0.0000
     atom:   34    charge:    3.1239    magn:   -0.0000    constr:    0.0000
     atom:   35    charge:    2.0876    magn:    0.0000    constr:    0.0000
     atom:   36    charge:    2.0847    magn:    0.0001    constr:    0.0000
     atom:   37    charge:    2.0847    magn:    0.0001    constr:    0.0000
     atom:   38    charge:    3.1200    magn:    0.0000    constr:    0.0000
     atom:   39    charge:    2.0839    magn:    0.0002    constr:    0.0000
     atom:   40    charge:    2.0756    magn:   -0.0001    constr:    0.0000
     atom:   41    charge:    2.0870    magn:   -0.0000    constr:    0.0000
     atom:   42    charge:    3.1151    magn:   -0.0002    constr:    0.0000
     atom:   43    charge:    2.0803    magn:    0.0033    constr:    0.0000
     atom:   44    charge:    2.0851    magn:    0.0010    constr:    0.0000
     atom:   45    charge:    2.0858    magn:    0.0005    constr:    0.0000
     atom:   46    charge:    3.1148    magn:   -0.0008    constr:    0.0000
     atom:   47    charge:    2.0806    magn:    0.0049    constr:    0.0000
     atom:   48    charge:    2.0837    magn:    0.0146    constr:    0.0000
     atom:   49    charge:    2.0514    magn:    0.2443    constr:    0.0000
     atom:   50    charge:    0.6729    magn:    0.0522    constr:    0.0000
     atom:   51    charge:    0.4222    magn:    0.0005    constr:    0.0000
     atom:   52    charge:    0.4227    magn:    0.0011    constr:    0.0000
     atom:   53    charge:    0.3751    magn:    0.0239    constr:    0.0000
     atom:   54    charge:    0.4232    magn:    0.0007    constr:    0.0000

     total cpu time spent up to now is     3022.6 secs

     total energy              =   -3021.14979779 Ry
     Harris-Foulkes estimate   =   -3021.14979799 Ry
     estimated scf accuracy    <       0.00000263 Ry

     total magnetization       =     1.06 Bohr mag/cell
     absolute magnetization    =     1.23 Bohr mag/cell

     iteration # 10     ecut=    40.42 Ry     beta=0.10
     Davidson diagonalization with overlap
     ethr =  6.60E-10,  avg # of iterations =  3.0

     negative rho (up, down):  1.189E-02 1.195E-02
 
     Magnetic moment per site:
     atom:    1    charge:    3.1244    magn:   -0.0002    constr:    0.0000
     atom:    2    charge:    2.0897    magn:    0.0001    constr:    0.0000
     atom:    3    charge:    3.1198    magn:   -0.0000    constr:    0.0000
     atom:    4    charge:    2.0867    magn:   -0.0001    constr:    0.0000
     atom:    5    charge:    3.1161    magn:   -0.0003    constr:    0.0000
     atom:    6    charge:    2.0795    magn:    0.0022    constr:    0.0000
     atom:    7    charge:    3.1167    magn:   -0.0059    constr:    0.0000
     atom:    8    charge:    2.0793    magn:    0.0259    constr:    0.0000
     atom:    9    charge:    3.1244    magn:   -0.0002    constr:    0.0000
     atom:   10    charge:    2.0898    magn:    0.0001    constr:    0.0000
     atom:   11    charge:    3.1198    magn:   -0.0000    constr:    0.0000
     atom:   12    charge:    2.0870    magn:   -0.0000    constr:    0.0000
     atom:   13    charge:    3.1150    magn:   -0.0002    constr:    0.0000
     atom:   14    charge:    2.0939    magn:    0.0023    constr:    0.0000
     atom:   15    charge:    3.1184    magn:   -0.0008    constr:    0.0000
     atom:   16    charge:    2.0828    magn:    0.0048    constr:    0.0000
     atom:   17    charge:    2.0624    magn:    0.0009    constr:    0.0000
     atom:   18    charge:    3.1239    magn:   -0.0000    constr:    0.0000
     atom:   19    charge:    2.0875    magn:    0.0000    constr:    0.0000
     atom:   20    charge:    2.0847    magn:    0.0001    constr:    0.0000
     atom:   21    charge:    2.0847    magn:    0.0001    constr:    0.0000
     atom:   22    charge:    3.1199    magn:    0.0000    constr:    0.0000
     atom:   23    charge:    2.0908    magn:    0.0003    constr:    0.0000
     atom:   24    charge:    2.0754    magn:   -0.0000    constr:    0.0000
     atom:   25    charge:    2.0867    magn:    0.0000    constr:    0.0000
     atom:   26    charge:    3.1127    magn:   -0.0003    constr:    0.0000
     atom:   27    charge:    2.0803    magn:    0.0028    constr:    0.0000
     atom:   28    charge:    2.0839    magn:    0.0008    constr:    0.0000
     atom:   29    charge:    2.0860    magn:    0.0009    constr:    0.0000
     atom:   30    charge:    3.1171    magn:   -0.0008    constr:    0.0000
     atom:   31    charge:    2.0825    magn:    0.0006    constr:    0.0000
     atom:   32    charge:    2.0829    magn:    0.0067    constr:    0.0000
     atom:   33    charge:    2.0624    magn:    0.0009    constr:    0.0000
     atom:   34    charge:    3.1239    magn:   -0.0000    constr:    0.0000
     atom:   35    charge:    2.0876    magn:    0.0000    constr:    0.0000
     atom:   36    charge:    2.0847    magn:    0.0001    constr:    0.0000
     atom:   37    charge:    2.0847    magn:    0.0001    constr:    0.0000
     atom:   38    charge:    3.1200    magn:    0.0000    constr:    0.0000
     atom:   39    charge:    2.0839    magn:    0.0002    constr:    0.0000
     atom:   40    charge:    2.0756    magn:   -0.0001    constr:    0.0000
     atom:   41    charge:    2.0870    magn:   -0.0000    constr:    0.0000
     atom:   42    charge:    3.1151    magn:   -0.0003    constr:    0.0000
     atom:   43    charge:    2.0803    magn:    0.0033    constr:    0.0000
     atom:   44    charge:    2.0851    magn:    0.0010    constr:    0.0000
     atom:   45    charge:    2.0858    magn:    0.0006    constr:    0.0000
     atom:   46    charge:    3.1148    magn:   -0.0008    constr:    0.0000
     atom:   47    charge:    2.0806    magn:    0.0049    constr:    0.0000
     atom:   48    charge:    2.0836    magn:    0.0146    constr:    0.0000
     atom:   49    charge:    2.0514    magn:    0.2445    constr:    0.0000
     atom:   50    charge:    0.6729    magn:    0.0521    constr:    0.0000
     atom:   51    charge:    0.4223    magn:    0.0005    constr:    0.0000
     atom:   52    charge:    0.4227    magn:    0.0011    constr:    0.0000
     atom:   53    charge:    0.3751    magn:    0.0240    constr:    0.0000
     atom:   54    charge:    0.4232    magn:    0.0008    constr:    0.0000

     total cpu time spent up to now is     3257.5 secs

     total energy              =   -3021.14979811 Ry
     Harris-Foulkes estimate   =   -3021.14979794 Ry
     estimated scf accuracy    <       0.00000111 Ry

     total magnetization       =     1.06 Bohr mag/cell
     absolute magnetization    =     1.23 Bohr mag/cell

     iteration # 11     ecut=    40.42 Ry     beta=0.10
     Davidson diagonalization with overlap
     ethr =  2.78E-10,  avg # of iterations =  3.0

     negative rho (up, down):  1.189E-02 1.195E-02
 
     Magnetic moment per site:
     atom:    1    charge:    3.1244    magn:   -0.0001    constr:    0.0000
     atom:    2    charge:    2.0897    magn:    0.0001    constr:    0.0000
     atom:    3    charge:    3.1198    magn:   -0.0000    constr:    0.0000
     atom:    4    charge:    2.0867    magn:   -0.0001    constr:    0.0000
     atom:    5    charge:    3.1161    magn:   -0.0003    constr:    0.0000
     atom:    6    charge:    2.0795    magn:    0.0022    constr:    0.0000
     atom:    7    charge:    3.1167    magn:   -0.0060    constr:    0.0000
     atom:    8    charge:    2.0793    magn:    0.0259    constr:    0.0000
     atom:    9    charge:    3.1244    magn:   -0.0001    constr:    0.0000
     atom:   10    charge:    2.0898    magn:    0.0001    constr:    0.0000
     atom:   11    charge:    3.1198    magn:   -0.0000    constr:    0.0000
     atom:   12    charge:    2.0870    magn:   -0.0000    constr:    0.0000
     atom:   13    charge:    3.1150    magn:   -0.0002    constr:    0.0000
     atom:   14    charge:    2.0939    magn:    0.0024    constr:    0.0000
     atom:   15    charge:    3.1184    magn:   -0.0008    constr:    0.0000
     atom:   16    charge:    2.0828    magn:    0.0049    constr:    0.0000
     atom:   17    charge:    2.0625    magn:    0.0007    constr:    0.0000
     atom:   18    charge:    3.1239    magn:   -0.0000    constr:    0.0000
     atom:   19    charge:    2.0875    magn:    0.0000    constr:    0.0000
     atom:   20    charge:    2.0847    magn:    0.0000    constr:    0.0000
     atom:   21    charge:    2.0847    magn:    0.0000    constr:    0.0000
     atom:   22    charge:    3.1199    magn:    0.0000    constr:    0.0000
     atom:   23    charge:    2.0908    magn:    0.0003    constr:    0.0000
     atom:   24    charge:    2.0754    magn:   -0.0000    constr:    0.0000
     atom:   25    charge:    2.0867    magn:    0.0000    constr:    0.0000
     atom:   26    charge:    3.1126    magn:   -0.0003    constr:    0.0000
     atom:   27    charge:    2.0802    magn:    0.0028    constr:    0.0000
     atom:   28    charge:    2.0839    magn:    0.0008    constr:    0.0000
     atom:   29    charge:    2.0860    magn:    0.0010    constr:    0.0000
     atom:   30    charge:    3.1171    magn:   -0.0008    constr:    0.0000
     atom:   31    charge:    2.0825    magn:    0.0006    constr:    0.0000
     atom:   32    charge:    2.0829    magn:    0.0067    constr:    0.0000
     atom:   33    charge:    2.0624    magn:    0.0007    constr:    0.0000
     atom:   34    charge:    3.1239    magn:   -0.0000    constr:    0.0000
     atom:   35    charge:    2.0875    magn:    0.0000    constr:    0.0000
     atom:   36    charge:    2.0847    magn:    0.0000    constr:    0.0000
     atom:   37    charge:    2.0847    magn:    0.0000    constr:    0.0000
     atom:   38    charge:    3.1200    magn:    0.0000    constr:    0.0000
     atom:   39    charge:    2.0839    magn:    0.0002    constr:    0.0000
     atom:   40    charge:    2.0756    magn:   -0.0001    constr:    0.0000
     atom:   41    charge:    2.0870    magn:   -0.0000    constr:    0.0000
     atom:   42    charge:    3.1151    magn:   -0.0003    constr:    0.0000
     atom:   43    charge:    2.0803    magn:    0.0034    constr:    0.0000
     atom:   44    charge:    2.0851    magn:    0.0011    constr:    0.0000
     atom:   45    charge:    2.0858    magn:    0.0006    constr:    0.0000
     atom:   46    charge:    3.1147    magn:   -0.0008    constr:    0.0000
     atom:   47    charge:    2.0806    magn:    0.0049    constr:    0.0000
     atom:   48    charge:    2.0837    magn:    0.0147    constr:    0.0000
     atom:   49    charge:    2.0514    magn:    0.2447    constr:    0.0000
     atom:   50    charge:    0.6730    magn:    0.0520    constr:    0.0000
     atom:   51    charge:    0.4222    magn:    0.0005    constr:    0.0000
     atom:   52    charge:    0.4227    magn:    0.0011    constr:    0.0000
     atom:   53    charge:    0.3751    magn:    0.0240    constr:    0.0000
     atom:   54    charge:    0.4232    magn:    0.0008    constr:    0.0000

     total cpu time spent up to now is     3505.3 secs

     End of self-consistent calculation

 ------ SPIN UP ------------


          k = 0.0000 0.0000 0.0000 ( 34665 PWs)   bands (ev):

   -58.3177 -58.2827 -57.3999 -57.3942 -57.3610 -57.3235 -57.2724 -57.1049
   -57.0768 -57.0709 -57.0325 -56.9341 -56.9062 -56.8988 -56.8113 -56.7729
   -34.7629 -34.5863 -34.5575 -34.5243 -34.4293 -34.3725 -33.8948 -33.8826
   -33.7648 -33.6914 -33.6493 -33.6067 -33.5741 -33.5673 -33.5614 -33.5548
   -33.5437 -33.5285 -33.5030 -33.5020 -33.4874 -33.4861 -33.4828 -33.4649
   -33.3535 -33.3462 -33.3439 -33.3416 -33.3296 -33.3005 -33.2944 -33.2748
   -33.2546 -33.2492 -33.2485 -33.2393 -33.2075 -33.1887 -33.1527 -33.1520
   -33.1129 -33.0893 -33.0628 -33.0394 -33.0262 -33.0001 -32.9611 -32.8923
   -18.4830 -18.0506 -17.8266 -17.7254 -17.5658 -17.5434 -17.5007 -17.3978
   -17.3717 -17.2709 -17.0594 -17.0384 -17.0306 -16.9977 -16.9372 -16.8684
   -16.8489 -16.8120 -16.7541 -16.7247 -16.7042 -16.6725 -16.6064 -16.6025
   -16.4796 -16.4324 -16.4126 -16.3781 -16.3398 -16.1583 -16.0967 -15.6134
   -15.5525 -11.1724  -6.0615  -5.5106  -5.2965  -5.2165  -5.1078  -5.0045
    -4.9956  -4.8946  -4.8914  -4.7453  -4.6637  -4.6132  -4.5993  -4.5238
    -4.4426  -4.4275  -4.3664  -4.3304  -4.2454  -4.2322  -4.2060  -4.1557
    -4.0449  -4.0377  -3.9921  -3.9228  -3.9059  -3.9000  -3.8974  -3.8335
    -3.7905  -3.7655  -3.6717  -3.6452  -3.6306  -3.5923  -3.5545  -3.5414
    -3.5218  -3.4309  -3.4203  -3.3735  -3.2866  -3.2451  -3.2015  -3.1002
    -2.9331  -2.9105  -2.8655  -2.8143  -2.7594  -2.7073  -2.6853  -2.6732
    -2.6475  -2.5501  -2.5014  -2.4526  -2.3912  -2.3481  -2.2629  -2.2427
    -2.2392  -2.1739  -2.0807  -2.0549  -2.0149  -1.9730  -1.9436  -1.9123
    -1.8668  -1.7516  -1.7092  -1.6827  -1.6548  -1.6442  -1.6005  -1.5203
    -1.4348  -1.3815  -1.3665  -1.3517  -1.3263  -1.2824  -1.2394  -1.1841
    -1.1732  -1.1242  -1.1238  -1.1138  -1.0795  -0.9945  -0.8867  -0.8517
    -0.8219  -0.7066  -0.7010  -0.6376  -0.5655  -0.5247  -0.4969  -0.2005
     1.0131   1.1099   1.4048   1.6830   1.7913   1.9093   1.9565   2.0033
     2.0335   2.1204   2.1973   2.2180   2.2641   2.3829   2.4581   2.4719
     2.4790   2.5060   2.6092   2.6545   2.6593   2.6766   2.6979   2.8148
     2.8295   2.8741   2.8883   2.9422   2.9562   3.0091   3.0180   3.0393
     3.0932   3.1487   3.1868   3.1885   3.2355   3.2434   3.3989   3.4358
     3.4669   3.5083   3.5853   3.6144   3.6589   3.7020   3.8167   3.9442
     4.0921   4.1237   4.3145   4.4608   4.5828   4.6943   4.7725   4.8242
     5.0738   5.1206   5.2019   5.3424   5.3864   5.3911   5.4200   5.4208
     5.4537   5.5101   5.5429   5.6505   5.7065   5.7270   5.8939   5.9213
     5.9443   6.0635   6.0816   6.1240   6.2085   6.2825   6.4107   6.4774
     6.5304   6.5674   6.7721   6.8037   7.2157   7.9164   8.1493   8.1663
     8.3591   8.3827   8.6641   8.7155   8.7437   8.9670   9.1520   9.2603
     9.3152   9.4584   9.6310

          k = 0.0000 0.0280 0.0000 ( 34717 PWs)   bands (ev):

   -58.3154 -58.2851 -57.3982 -57.3925 -57.3634 -57.3246 -57.2720 -57.1047
   -57.0769 -57.0692 -57.0345 -56.9317 -56.9065 -56.9012 -56.8088 -56.7754
   -34.7375 -34.5843 -34.5595 -34.5181 -34.4359 -34.3995 -33.8694 -33.8571
   -33.7440 -33.6851 -33.6432 -33.6041 -33.5812 -33.5637 -33.5557 -33.5475
   -33.5428 -33.5302 -33.5271 -33.5100 -33.5026 -33.4857 -33.4779 -33.4585
   -33.3481 -33.3418 -33.3285 -33.3273 -33.3202 -33.3171 -33.2919 -33.2731
   -33.2592 -33.2510 -33.2490 -33.2387 -33.2149 -33.2095 -33.1581 -33.1467
   -33.1246 -33.0858 -33.0689 -33.0394 -33.0259 -33.0049 -32.9885 -32.9210
   -18.4247 -17.9909 -17.7767 -17.6952 -17.6197 -17.5210 -17.4518 -17.3857
   -17.3405 -17.3016 -17.1105 -17.0172 -17.0093 -16.9866 -16.9403 -16.8896
   -16.8096 -16.7876 -16.7753 -16.7503 -16.7231 -16.6982 -16.6318 -16.5800
   -16.4937 -16.4576 -16.4195 -16.4014 -16.3720 -16.1771 -16.1382 -15.6274
   -15.5780 -11.1733  -5.9761  -5.4264  -5.2172  -5.1458  -5.0373  -4.9625
    -4.9378  -4.8788  -4.8210  -4.7429  -4.6821  -4.6673  -4.5403  -4.5294
    -4.4303  -4.3907  -4.3767  -4.3371  -4.2716  -4.2247  -4.2119  -4.1899
    -4.1137  -4.0809  -4.0303  -4.0126  -3.9924  -3.9849  -3.9358  -3.8659
    -3.8283  -3.7676  -3.7594  -3.7280  -3.6459  -3.6404  -3.5647  -3.4504
    -3.4149  -3.3333  -3.3141  -3.3121  -3.2812  -3.1366  -3.1176  -2.9581
    -2.9166  -2.8958  -2.8140  -2.7629  -2.7579  -2.7347  -2.7006  -2.6652
    -2.6127  -2.5309  -2.4714  -2.4570  -2.4289  -2.2938  -2.2690  -2.2378
    -2.2263  -2.1666  -2.1588  -2.0416  -1.9969  -1.9720  -1.9391  -1.9271
    -1.8882  -1.7809  -1.7726  -1.7334  -1.6956  -1.6249  -1.5960  -1.5858
    -1.5154  -1.4732  -1.4061  -1.3906  -1.3876  -1.3713  -1.2986  -1.2867
    -1.2492  -1.1885  -1.1735  -1.0835  -1.0070  -0.9676  -0.9464  -0.9104
    -0.8899  -0.8549  -0.7434  -0.6131  -0.5863  -0.5726  -0.5531  -0.2416
     1.1457   1.1509   1.4060   1.8194   1.8636   1.8812   1.9138   1.9902
     2.0484   2.0664   2.2875   2.2958   2.3285   2.4455   2.4815   2.5021
     2.5101   2.5319   2.5366   2.5854   2.7025   2.7206   2.7908   2.8013
     2.8235   2.8878   2.9243   2.9525   2.9691   2.9820   3.0032   3.0540
     3.0742   3.1108   3.1642   3.2226   3.2351   3.3161   3.4236   3.4649
     3.5013   3.5312   3.5547   3.5770   3.6325   3.6551   3.7749   3.8963
     4.0464   4.1907   4.2708   4.5140   4.6934   4.6956   4.8026   4.8991
     5.1006   5.1612   5.2458   5.2906   5.3607   5.4001   5.4226   5.4688
     5.4945   5.5354   5.5515   5.6494   5.6939   5.7021   5.8118   5.8723
     5.9368   5.9793   6.0359   6.0414   6.1676   6.2408   6.3764   6.4223
     6.4394   6.5503   6.7222   6.8074   7.3224   7.4437   8.0022   8.0759
     8.3403   8.4909   8.5392   8.7181   8.7908   8.9922   9.1125   9.3116
     9.3761   9.4510   9.5279

          k = 0.0000 0.0560 0.0000 ( 34721 PWs)   bands (ev):

   -58.3090 -58.2915 -57.3948 -57.3873 -57.3698 -57.3268 -57.2712 -57.1043
   -57.0774 -57.0646 -57.0395 -56.9253 -56.9077 -56.9069 -56.8021 -56.7821
   -34.6676 -34.5791 -34.5646 -34.5009 -34.4726 -34.4534 -33.7996 -33.7877
   -33.6933 -33.6682 -33.6265 -33.6044 -33.6035 -33.5978 -33.5831 -33.5796
   -33.5516 -33.5430 -33.5254 -33.5074 -33.4837 -33.4789 -33.4760 -33.4245
   -33.3826 -33.3376 -33.3355 -33.3216 -33.2934 -33.2835 -33.2684 -33.2682
   -33.2668 -33.2588 -33.2557 -33.2375 -33.2282 -33.2193 -33.1749 -33.1438
   -33.1305 -33.0855 -33.0829 -33.0624 -33.0389 -33.0258 -33.0171 -32.9915
   -18.2635 -17.8262 -17.8035 -17.6469 -17.6124 -17.4229 -17.4037 -17.3852
   -17.3213 -17.2782 -17.2434 -17.0568 -16.9998 -16.9332 -16.9296 -16.9123
   -16.8547 -16.8293 -16.7405 -16.7172 -16.7116 -16.6860 -16.6382 -16.5731
   -16.5268 -16.5210 -16.4676 -16.4542 -16.4266 -16.2419 -16.2189 -15.6559
   -15.6317 -11.1751  -5.7367  -5.1936  -5.0575  -5.0008  -4.9631  -4.8929
    -4.8603  -4.8439  -4.8270  -4.7806  -4.7450  -4.5658  -4.5205  -4.4776
    -4.4058  -4.4048  -4.3632  -4.3322  -4.3176  -4.2996  -4.2627  -4.2253
    -4.2210  -4.2037  -4.1421  -4.0705  -4.0256  -3.9856  -3.9768  -3.9199
    -3.8822  -3.8275  -3.7432  -3.6662  -3.6335  -3.5515  -3.4233  -3.4162
    -3.3753  -3.2972  -3.2577  -3.1447  -3.1009  -3.0815  -3.0499  -3.0227
    -2.9795  -2.9691  -2.8385  -2.8086  -2.7521  -2.7079  -2.6625  -2.5684
    -2.4951  -2.4864  -2.4517  -2.3673  -2.3142  -2.3085  -2.2336  -2.2009
    -2.1650  -2.1516  -2.1307  -2.0988  -2.0659  -2.0223  -2.0078  -1.9813
    -1.9462  -1.9038  -1.8943  -1.8727  -1.8260  -1.7651  -1.6695  -1.6192
    -1.6062  -1.5899  -1.5249  -1.4861  -1.4620  -1.4569  -1.4438  -1.3889
    -1.3044  -1.2838  -1.2280  -1.2171  -1.1025  -1.0255  -0.9921  -0.9567
    -0.8717  -0.8487  -0.7503  -0.7277  -0.6325  -0.5946  -0.5763  -0.3450
     1.2747   1.4164   1.4891   1.7103   1.7870   1.8800   1.9508   2.0481
     2.1288   2.2646   2.2698   2.3214   2.4054   2.4746   2.4939   2.5200
     2.5611   2.6000   2.6506   2.6982   2.7413   2.7584   2.7898   2.8383
     2.8536   2.8725   2.8822   2.9521   2.9985   3.0164   3.0253   3.0523
     3.1133   3.1465   3.1700   3.2481   3.2966   3.3280   3.3747   3.4235
     3.4607   3.4766   3.5519   3.6009   3.6633   3.6757   3.7158   3.7910
     3.9132   4.1481   4.3129   4.6410   4.7313   4.8316   4.9238   5.0619
     5.0671   5.1653   5.2711   5.3225   5.3906   5.4259   5.4591   5.4882
     5.4885   5.5512   5.5711   5.6370   5.6419   5.7426   5.7604   5.8044
     5.8532   5.8639   5.8775   5.9190   6.1061   6.1496   6.2892   6.3703
     6.4143   6.4338   6.7121   6.7393   7.0025   7.2271   7.6185   7.7513
     8.2090   8.3831   8.7143   8.8149   8.8404   8.8925   9.1866   9.3532
     9.4267   9.6122   9.7153

          k = 0.0000-0.0840 0.0000 ( 34678 PWs)   bands (ev):

   -58.3009 -58.2996 -57.3932 -57.3809 -57.3766 -57.3280 -57.2708 -57.1041
   -57.0777 -57.0612 -57.0429 -56.9168 -56.9162 -56.9071 -56.7952 -56.7890
   -34.5727 -34.5718 -34.5708 -34.5702 -34.4778 -34.4767 -33.7159 -33.7026
   -33.6989 -33.6604 -33.6591 -33.6532 -33.6215 -33.6053 -33.6013 -33.5907
   -33.5501 -33.5449 -33.5248 -33.5166 -33.4808 -33.4748 -33.4127 -33.3989
   -33.3922 -33.3763 -33.3394 -33.3344 -33.3186 -33.2856 -33.2728 -33.2638
   -33.2623 -33.2618 -33.2374 -33.2325 -33.1836 -33.1620 -33.1612 -33.1514
   -33.1370 -33.1347 -33.1084 -33.1078 -33.0392 -33.0307 -33.0279 -33.0222
   -18.0385 -18.0377 -17.6064 -17.5973 -17.5238 -17.4992 -17.4989 -17.4088
   -17.2719 -17.2316 -17.1438 -17.1206 -17.0864 -17.0510 -16.9050 -16.8586
   -16.8215 -16.8212 -16.8198 -16.6886 -16.6266 -16.6231 -16.6170 -16.5932
   -16.5637 -16.5421 -16.5212 -16.4886 -16.4793 -16.2845 -16.2599 -15.6652
   -15.6652 -11.1759  -5.3972  -5.3969  -4.9010  -4.9000  -4.8897  -4.8804
    -4.8652  -4.7835  -4.7719  -4.7330  -4.6726  -4.6179  -4.5813  -4.5742
    -4.5061  -4.4828  -4.4596  -4.4052  -4.3897  -4.2797  -4.2675  -4.2594
    -4.1721  -4.1297  -4.0800  -4.0450  -4.0065  -3.9134  -3.8964  -3.8681
    -3.7921  -3.7259  -3.6862  -3.6658  -3.6606  -3.6588  -3.6360  -3.4234
    -3.3734  -3.3595  -3.1608  -3.0906  -3.0849  -3.0413  -2.9402  -2.9395
    -2.9302  -2.8633  -2.8400  -2.8047  -2.7869  -2.7074  -2.6826  -2.6584
    -2.5346  -2.5153  -2.4335  -2.4169  -2.4090  -2.3870  -2.3252  -2.2542
    -2.2409  -2.1785  -2.1324  -2.0712  -2.0199  -1.9930  -1.9889  -1.9830
    -1.9787  -1.9548  -1.8533  -1.8123  -1.7918  -1.7418  -1.7057  -1.6713
    -1.6555  -1.6240  -1.6043  -1.5301  -1.5210  -1.4788  -1.4592  -1.4364
    -1.3941  -1.3437  -1.2940  -1.1910  -1.1513  -1.1308  -1.1079  -1.0927
    -0.8523  -0.8280  -0.6303  -0.6214  -0.6166  -0.6084  -0.5598  -0.5114
     1.4709   1.4736   1.6232   1.6239   1.7028   1.7037   2.0739   2.0747
     2.1375   2.1926   2.3633   2.3979   2.4345   2.4807   2.5284   2.5366
     2.6427   2.6548   2.6645   2.6779   2.7303   2.7397   2.7984   2.8008
     2.9008   2.9359   2.9794   3.0072   3.0122   3.0151   3.0217   3.0251
     3.0324   3.2133   3.2229   3.2532   3.2859   3.3284   3.3546   3.3845
     3.4224   3.4371   3.4915   3.6142   3.6858   3.7242   3.7387   3.7814
     3.8349   4.0251   4.3652   4.7452   4.8208   4.8544   4.8552   5.0412
     5.1330   5.2130   5.3033   5.3191   5.3533   5.3965   5.4571   5.5325
     5.5531   5.5855   5.5877   5.6755   5.6883   5.7073   5.7172   5.7303
     5.7579   5.7990   5.8313   5.9329   6.0162   6.1471   6.2913   6.3827
     6.4521   6.4684   6.5890   6.6123   6.9390   6.9887   7.4581   7.6185
     8.0410   8.2458   8.7233   8.9456   9.1425   9.2461   9.3392   9.3407
     9.4582   9.6051   9.6961

[...]
    -1.7410  -1.5157  -1.4749  -1.4642  -1.4469  -1.4097  -1.3294  -1.1681
    -1.1556  -1.0994  -1.0812  -1.0658  -0.9842  -0.9220  -0.8836  -0.7992
    -0.7458  -0.7389  -0.7101  -0.6822  -0.6057  -0.5856  -0.5712   0.2673
     1.5898   1.5933   1.6059   1.6112   1.9537   1.9546   2.0835   2.0845
     2.2667   2.2878   2.3010   2.3827   2.4058   2.4756   2.5632   2.6217
     2.6437   2.6883   2.7716   2.8052   2.8619   2.9137   2.9359   2.9638
     2.9783   2.9872   3.0283   3.0859   3.0998   3.1975   3.2233   3.2320
     3.2478   3.2719   3.3291   3.3752   3.3892   3.3941   3.4518   3.4620
     3.4723   3.5000   3.5148   3.5691   3.6263   3.6442   3.7648   3.8673
     3.9040   3.9130   4.1286   4.1290   4.5800   4.6080   4.6304   4.7158
     4.8706   4.8872   4.9199   5.0697   5.1493   5.1542   5.1731   5.4347
     5.6622   5.6712   5.6819   5.9146   5.9200   5.9536   6.0056   6.0084
     6.0834   6.0941   6.1649   6.2565   6.2592   6.2688   6.3712   6.4484
     6.4892   6.5952   7.0810   7.2507   7.3548   7.4124   7.5563   7.5913
     7.7239   7.7777   7.9303   8.1165   8.3034   8.3495   8.4594   8.8741
     9.0203   9.0760   9.2215

          k =-0.0253 0.0280 0.0000 ( 34687 PWs)   bands (ev):

   -58.3156 -58.2852 -57.3978 -57.3928 -57.3634 -57.3247 -57.2729 -57.1088
   -57.0780 -57.0706 -57.0357 -56.9336 -56.9325 -56.9019 -56.8125 -56.7791
   -34.7380 -34.5846 -34.5597 -34.5175 -34.4359 -34.3997 -33.8696 -33.8592
   -33.7450 -33.6775 -33.6431 -33.6044 -33.5783 -33.5641 -33.5608 -33.5516
   -33.5442 -33.5313 -33.5295 -33.5096 -33.5037 -33.4806 -33.4798 -33.4618
   -33.3491 -33.3394 -33.3329 -33.3291 -33.3218 -33.3183 -33.2935 -33.2748
   -33.2642 -33.2511 -33.2506 -33.2420 -33.2257 -33.2152 -33.1784 -33.1474
   -33.1451 -33.0893 -33.0696 -33.0494 -33.0305 -33.0084 -32.9892 -32.9238
   -18.3808 -17.9519 -17.7862 -17.7446 -17.5333 -17.5270 -17.3858 -17.3788
   -17.3555 -17.3261 -17.1224 -17.0795 -16.9947 -16.9496 -16.8835 -16.8402
   -16.8024 -16.7614 -16.7433 -16.6798 -16.6731 -16.5937 -16.5538 -16.4956
   -16.4716 -16.4153 -16.3769 -16.3589 -16.1641 -16.1289 -15.8657 -15.6230
   -15.5743 -10.7909  -5.8516  -5.3204  -5.1542  -5.1364  -5.0041  -4.9634
    -4.9242  -4.8358  -4.7089  -4.6882  -4.6470  -4.5467  -4.5088  -4.4523
    -4.4183  -4.3241  -4.3008  -4.2598  -4.2081  -4.1920  -4.1518  -4.1372
    -4.1031  -4.0533  -4.0093  -3.9958  -3.9611  -3.9231  -3.8879  -3.8099
    -3.7910  -3.7347  -3.6949  -3.6333  -3.5940  -3.5521  -3.4948  -3.3997
    -3.3538  -3.3309  -3.2934  -3.2733  -3.2339  -3.1912  -3.1225  -3.1068
    -2.9298  -2.8922  -2.8325  -2.7881  -2.7322  -2.6947  -2.6851  -2.6281
    -2.5969  -2.5194  -2.5102  -2.4528  -2.4186  -2.3692  -2.2988  -2.2761
    -2.2234  -2.2025  -2.1149  -2.0533  -1.9684  -1.9511  -1.9263  -1.8607
    -1.8500  -1.8021  -1.7564  -1.6944  -1.6470  -1.6061  -1.5731  -1.5208
    -1.4868  -1.4464  -1.4175  -1.3904  -1.3710  -1.3566  -1.3253  -1.3010
    -1.2161  -1.1340  -1.0715  -1.0216  -0.9984  -0.9647  -0.9402  -0.8953
    -0.8541  -0.8310  -0.6421  -0.6210  -0.5962  -0.5330  -0.2765   0.2897
     1.1417   1.2353   1.4194   1.8086   1.8482   1.9153   1.9516   2.0189
     2.0299   2.1791   2.2897   2.3356   2.3772   2.4198   2.4435   2.4936
     2.5138   2.5381   2.5790   2.6394   2.6877   2.7118   2.7680   2.8214
     2.8666   2.9034   2.9200   2.9629   2.9805   3.0042   3.0306   3.0830
     3.1604   3.1809   3.2233   3.2490   3.2843   3.3277   3.4194   3.4547
     3.4848   3.5492   3.6020   3.6332   3.6539   3.7339   3.8139   3.8555
     4.0028   4.1990   4.2752   4.4256   4.6146   4.7131   4.8336   4.8507
     4.9919   5.0157   5.1021   5.1882   5.2321   5.3482   5.4508   5.5386
     5.6658   5.6851   5.7150   5.7930   5.8403   5.8728   5.8992   5.9211
     5.9571   5.9796   6.0563   6.1267   6.1648   6.2737   6.3879   6.4387
     6.4520   6.5757   6.7491   6.8058   7.3806   7.4761   7.8026   7.8962
     8.0997   8.2433   8.4866   8.5375   8.7921   8.9009   9.0884   9.3078
     9.3799   9.5375   9.6181

          k =-0.0253 0.0560 0.0000 ( 34699 PWs)   bands (ev):

   -58.3092 -58.2917 -57.3947 -57.3874 -57.3698 -57.3269 -57.2721 -57.1084
   -57.0786 -57.0659 -57.0407 -56.9341 -56.9260 -56.9084 -56.8058 -56.7859
   -34.6681 -34.5793 -34.5649 -34.5005 -34.4729 -34.4534 -33.7998 -33.7900
   -33.6942 -33.6622 -33.6264 -33.6028 -33.5988 -33.5979 -33.5865 -33.5796
   -33.5533 -33.5439 -33.5300 -33.5087 -33.4952 -33.4785 -33.4672 -33.4279
   -33.3840 -33.3370 -33.3332 -33.3260 -33.2954 -33.2859 -33.2698 -33.2695
   -33.2683 -33.2595 -33.2561 -33.2428 -33.2313 -33.2273 -33.1939 -33.1738
   -33.1312 -33.0863 -33.0863 -33.0631 -33.0464 -33.0329 -33.0205 -32.9944
   -18.2230 -17.8131 -17.7917 -17.6232 -17.6113 -17.4673 -17.4047 -17.3810
   -17.2602 -17.2529 -17.2152 -17.0694 -16.9597 -16.9308 -16.8926 -16.8518
   -16.8091 -16.7551 -16.7443 -16.7289 -16.6943 -16.6097 -16.5592 -16.5424
   -16.5113 -16.4529 -16.4222 -16.4183 -16.2253 -16.2104 -15.8645 -15.6517
   -15.6281 -10.7927  -5.6164  -5.0931  -5.0353  -4.9673  -4.9353  -4.8284
    -4.8064  -4.7693  -4.6990  -4.6848  -4.5373  -4.5206  -4.4575  -4.4066
    -4.3888  -4.3805  -4.3320  -4.2883  -4.2613  -4.2514  -4.2149  -4.1824
    -4.1424  -4.1306  -4.0643  -4.0262  -4.0017  -3.9563  -3.9312  -3.9007
    -3.8379  -3.8055  -3.6938  -3.5929  -3.5556  -3.5367  -3.4626  -3.3956
    -3.3719  -3.2988  -3.1988  -3.1707  -3.1281  -3.1214  -3.0693  -3.0352
    -2.9926  -2.9377  -2.8535  -2.8039  -2.7733  -2.7150  -2.6200  -2.5996
    -2.5350  -2.5209  -2.4667  -2.4020  -2.3867  -2.3288  -2.3113  -2.2699
    -2.1974  -2.1462  -2.1322  -2.0997  -2.0594  -2.0171  -1.9963  -1.9592
    -1.9416  -1.9166  -1.9042  -1.8570  -1.7783  -1.7135  -1.7010  -1.6055
    -1.5832  -1.5552  -1.5289  -1.4954  -1.4524  -1.4239  -1.3950  -1.3350
    -1.3005  -1.2334  -1.1648  -1.0442  -1.0146  -0.9806  -0.9484  -0.8685
    -0.7730  -0.7464  -0.7162  -0.6514  -0.6203  -0.5669  -0.3737   0.2712
     1.2760   1.4580   1.5533   1.7472   1.7626   1.9010   1.9679   2.0470
     2.2545   2.2648   2.3314   2.3677   2.4041   2.4763   2.5116   2.5369
     2.5619   2.5853   2.6425   2.6956   2.7101   2.7538   2.7962   2.8459
     2.8718   2.9067   2.9507   2.9964   3.0219   3.0354   3.0453   3.0987
     3.1485   3.1881   3.2073   3.2778   3.3069   3.3354   3.3675   3.4469
     3.4988   3.5243   3.6026   3.6251   3.6605   3.7174   3.7363   3.7900
     3.8855   4.0894   4.3824   4.4901   4.7052   4.8482   4.8993   4.9506
     4.9847   5.0791   5.1762   5.1974   5.3261   5.3775   5.4232   5.5180
     5.5540   5.5890   5.6416   5.6989   5.7282   5.7933   5.8094   5.8501
     5.9172   5.9344   6.0086   6.0796   6.1224   6.2037   6.3200   6.4240
     6.4545   6.4716   6.7120   6.7606   7.0808   7.3087   7.6781   7.8354
     8.1095   8.2399   8.3257   8.4979   8.7833   8.9030   9.0010   9.1959
     9.3785   9.5566   9.6549

          k =-0.0506 0.0280 0.0000 ( 34685 PWs)   bands (ev):

   -58.3156 -58.2852 -57.3970 -57.3937 -57.3634 -57.3247 -57.2728 -57.1088
   -57.0777 -57.0710 -57.0357 -56.9336 -56.9325 -56.9019 -56.8125 -56.7791
   -34.7388 -34.5845 -34.5597 -34.5159 -34.4359 -34.3998 -33.8700 -33.8632
   -33.7452 -33.6580 -33.6429 -33.6045 -33.5834 -33.5660 -33.5647 -33.5570
   -33.5445 -33.5387 -33.5283 -33.5095 -33.5038 -33.4813 -33.4680 -33.4628
   -33.3493 -33.3329 -33.3311 -33.3290 -33.3186 -33.3178 -33.2937 -33.2768
   -33.2742 -33.2507 -33.2501 -33.2448 -33.2258 -33.2146 -33.1744 -33.1474
   -33.1454 -33.0894 -33.0696 -33.0564 -33.0288 -33.0083 -32.9892 -32.9238
   -18.2724 -17.8743 -17.8624 -17.7117 -17.5982 -17.4659 -17.4484 -17.3547
   -17.3276 -17.2613 -17.1908 -17.0970 -17.0073 -16.9621 -16.9332 -16.9052
   -16.8216 -16.7780 -16.7668 -16.7069 -16.6435 -16.5600 -16.5335 -16.4996
   -16.4717 -16.4162 -16.4010 -16.3635 -16.1606 -16.1294 -15.8664 -15.6211
   -15.5744 -10.7907  -5.5503  -5.1977  -5.1644  -5.1318  -4.9599  -4.8800
    -4.7783  -4.7203  -4.6932  -4.6627  -4.6118  -4.5979  -4.5439  -4.4179
    -4.3729  -4.3334  -4.2518  -4.2250  -4.1898  -4.1745  -4.1587  -4.0660
    -4.0316  -4.0135  -3.9790  -3.9323  -3.8959  -3.8491  -3.8242  -3.7926
    -3.7318  -3.6798  -3.6395  -3.5892  -3.5520  -3.5393  -3.4944  -3.4623
    -3.3883  -3.3750  -3.3026  -3.2754  -3.2146  -3.1572  -3.1282  -3.0687
    -3.0202  -2.9911  -2.9116  -2.8457  -2.7677  -2.7093  -2.6996  -2.6759
    -2.6272  -2.6043  -2.5905  -2.5363  -2.5272  -2.4031  -2.3515  -2.3430
    -2.2799  -2.2109  -2.1963  -2.1697  -2.0915  -2.0205  -2.0149  -1.9525
    -1.9343  -1.9048  -1.8210  -1.7329  -1.7193  -1.6953  -1.6252  -1.5962
    -1.5347  -1.4858  -1.4637  -1.4032  -1.3894  -1.3363  -1.3213  -1.2710
    -1.2543  -1.1317  -1.0684  -1.0451  -1.0217  -0.9673  -0.9347  -0.8864
    -0.8389  -0.8070  -0.7304  -0.6926  -0.6712  -0.5471  -0.4024   0.2739
     1.1286   1.3287   1.4537   1.5545   1.9224   1.9324   1.9550   2.0468
     2.1127   2.1874   2.2423   2.3182   2.3948   2.4284   2.5172   2.5347
     2.5810   2.6391   2.6760   2.6899   2.7435   2.8170   2.8400   2.8703
     2.9291   2.9350   2.9681   2.9733   2.9799   3.0906   3.0977   3.1263
     3.1742   3.2032   3.2797   3.2998   3.3446   3.3715   3.3951   3.4436
     3.4587   3.5370   3.5912   3.6563   3.7318   3.7681   3.7879   3.8903
     3.9492   4.0509   4.0978   4.3964   4.4987   4.6448   4.7362   4.7981
     4.8305   4.9025   4.9549   5.2781   5.3188   5.4022   5.5165   5.5484
     5.6298   5.7554   5.7753   5.8422   5.8892   5.9017   5.9751   6.0496
     6.0824   6.1556   6.2390   6.3243   6.3761   6.4017   6.4336   6.4792
     6.5302   6.5412   6.7032   6.9220   7.0878   7.2221   7.5415   7.6164
     7.7308   8.2261   8.4175   8.4993   8.8641   8.9458   9.0702   9.2309
     9.4298   9.6111   9.6760

          k =-0.0506 0.0560 0.0000 ( 34596 PWs)   bands (ev):

   -58.3092 -58.2917 -57.3943 -57.3878 -57.3698 -57.3270 -57.2721 -57.1084
   -57.0784 -57.0661 -57.0407 -56.9341 -56.9260 -56.9084 -56.8058 -56.7859
   -34.6687 -34.5793 -34.5648 -34.4991 -34.4731 -34.4529 -33.8001 -33.7945
   -33.6944 -33.6465 -33.6262 -33.6020 -33.6004 -33.5978 -33.5808 -33.5796
   -33.5566 -33.5440 -33.5422 -33.5089 -33.5044 -33.4786 -33.4556 -33.4295
   -33.3843 -33.3368 -33.3234 -33.3196 -33.2980 -33.2881 -33.2710 -33.2692
   -33.2681 -33.2593 -33.2556 -33.2527 -33.2321 -33.2275 -33.1933 -33.1696
   -33.1311 -33.0864 -33.0862 -33.0630 -33.0506 -33.0335 -33.0204 -32.9942
   -18.1199 -17.8309 -17.7138 -17.6256 -17.6093 -17.5698 -17.3927 -17.3810
   -17.2311 -17.2185 -17.1295 -17.1073 -16.9898 -16.9242 -16.8798 -16.8543
   -16.8358 -16.8200 -16.7736 -16.7481 -16.7330 -16.6400 -16.6089 -16.5185
   -16.5083 -16.4506 -16.4331 -16.4226 -16.2247 -16.2069 -15.8644 -15.6505
   -15.6286 -10.7925  -5.3138  -5.0039  -4.9534  -4.9455  -4.7953  -4.7876
    -4.7287  -4.6516  -4.5387  -4.5185  -4.5128  -4.4300  -4.4157  -4.3930
    -4.3732  -4.3396  -4.3213  -4.2596  -4.2121  -4.1882  -4.1770  -4.1231
    -4.1140  -4.0633  -4.0508  -4.0002  -3.9863  -3.9138  -3.8896  -3.8403
    -3.7922  -3.7146  -3.6740  -3.6226  -3.5794  -3.5536  -3.5036  -3.4418
    -3.4032  -3.3312  -3.2715  -3.2430  -3.1455  -3.1378  -3.0910  -3.0620
    -3.0068  -2.9896  -2.9697  -2.9120  -2.8116  -2.7751  -2.7607  -2.7174
    -2.6417  -2.5987  -2.5570  -2.5127  -2.4902  -2.4262  -2.4013  -2.3814
    -2.3628  -2.3018  -2.2068  -2.1837  -2.1588  -2.1407  -2.1135  -2.0593
    -2.0247  -1.9829  -1.9554  -1.8806  -1.8588  -1.7935  -1.7430  -1.6689
    -1.5773  -1.5608  -1.5499  -1.5065  -1.4524  -1.3966  -1.3648  -1.3172
    -1.2559  -1.1870  -1.0890  -1.0328  -0.9996  -0.9150  -0.8638  -0.8563
    -0.8057  -0.7184  -0.7031  -0.6822  -0.6678  -0.5651  -0.4876   0.2740
     1.2966   1.4863   1.6350   1.6567   1.8414   1.9925   2.0211   2.0561
     2.2320   2.2446   2.3491   2.3651   2.4213   2.4501   2.5368   2.5739
     2.6392   2.6845   2.7183   2.7328   2.8000   2.8312   2.8596   2.8921
     2.9223   2.9395   2.9951   3.0306   3.0610   3.1020   3.1337   3.1793
     3.1843   3.2398   3.2734   3.3134   3.3228   3.3657   3.4056   3.4557
     3.4714   3.5379   3.5683   3.6302   3.6570   3.7350   3.7945   3.8297
     3.8732   3.9498   4.1413   4.4932   4.5851   4.6048   4.7431   4.8105
     4.8773   4.9538   4.9992   5.1753   5.2906   5.3647   5.4005   5.4325
     5.5840   5.6068   5.6567   5.7059   5.8684   5.8855   5.9760   5.9954
     6.0579   6.0975   6.1608   6.2006   6.3120   6.3289   6.4084   6.4139
     6.5310   6.6066   6.7669   6.7989   7.1937   7.3659   7.5201   7.6263
     7.9444   8.0208   8.1086   8.3917   8.6126   8.7256   8.8117   9.0449
     9.2008   9.3288   9.4386

     the Fermi energy is    -0.3029 ev

!    total energy              =   -3021.14979831 Ry
     Harris-Foulkes estimate   =   -3021.14979825 Ry
     estimated scf accuracy    <       0.00000025 Ry

     The total energy is the sum of the following terms:

     one-electron contribution =  -40436.31422057 Ry
     hartree contribution      =   20289.34186844 Ry
     xc contribution           =    -553.21572401 Ry
     ewald contribution        =   17679.05812091 Ry
     smearing contrib. (-TS)   =      -0.01984308 Ry

     total magnetization       =     1.06 Bohr mag/cell
     absolute magnetization    =     1.23 Bohr mag/cell

     convergence has been achieved in  11 iterations

     Forces acting on atoms (Ry/au):


     negative rho (up, down):  1.189E-02 1.195E-02
     atom    1 type  1   force =     0.00018435   -0.00090220   -0.10471011
     atom    2 type  2   force =     0.00014267    0.00067858    0.04005024
     atom    3 type  1   force =     0.00074756   -0.00175563   -0.02054776
     atom    4 type  2   force =    -0.00326158    0.00312060   -0.00322583
     atom    5 type  1   force =     0.00034530    0.00010631    0.00027621
     atom    6 type  2   force =    -0.00013849   -0.00012127    0.00020671
     atom    7 type  1   force =     0.00001564    0.00043350   -0.00031452
     atom    8 type  2   force =    -0.00007426   -0.00000133   -0.00003776
     atom    9 type  1   force =    -0.00003453    0.00056319   -0.10484222
     atom   10 type  2   force =     0.00034739   -0.00021418    0.03602350
     atom   11 type  1   force =     0.00067897    0.00183585    0.00261013
     atom   12 type  2   force =    -0.00518997   -0.00267166   -0.00518989
     atom   13 type  1   force =     0.00041309    0.00004971   -0.00030185
     atom   14 type  2   force =     0.00012977   -0.00007692    0.00004652
     atom   15 type  1   force =    -0.00000119   -0.00020312    0.00026240
     atom   16 type  2   force =    -0.00015908    0.00002998   -0.00041258
     atom   17 type  2   force =     0.00000818   -0.00001673    0.06656970
     atom   18 type  1   force =     0.00005781    0.00002698    0.13142496
     atom   19 type  2   force =     0.00017678   -0.00053171   -0.08519650
     atom   20 type  2   force =    -0.05791805    0.00013896   -0.03606572
     atom   21 type  2   force =     0.05780825   -0.00005038   -0.03602622
     atom   22 type  1   force =    -0.00042910    0.00074687    0.08016888
     atom   23 type  2   force =     0.00019690   -0.00005073    0.00005931
     atom   24 type  2   force =     0.00064173    0.00185668   -0.03468012
     atom   25 type  2   force =     0.00413210    0.00332238   -0.00509556
     atom   26 type  1   force =     0.00040401   -0.00005327    0.00010169
     atom   27 type  2   force =    -0.00009833   -0.00013594   -0.00003200
     atom   28 type  2   force =     0.00006439   -0.00020293   -0.00002020
     atom   29 type  2   force =    -0.00000716   -0.00008157    0.00006996
     atom   30 type  1   force =    -0.00047343   -0.00015549    0.00036591
     atom   31 type  2   force =     0.00014977   -0.00013427   -0.00027830
     atom   32 type  2   force =    -0.00016644   -0.00002772    0.00003637
     atom   33 type  2   force =    -0.00016808    0.00004655    0.06630234
     atom   34 type  1   force =     0.00007687   -0.00003633    0.13120385
     atom   35 type  2   force =     0.00018691   -0.00013230   -0.08480741
     atom   36 type  2   force =    -0.05781320    0.00006207   -0.03567803
     atom   37 type  2   force =     0.05798232   -0.00017870   -0.03607649
     atom   38 type  1   force =    -0.00037707   -0.00020873    0.07983834
     atom   39 type  2   force =     0.00007579   -0.00027523   -0.00007095
     atom   40 type  2   force =     0.00048822    0.00123731   -0.03528555
     atom   41 type  2   force =     0.00588056   -0.00243577   -0.00721949
     atom   42 type  1   force =     0.00023961   -0.00007035    0.00001755
     atom   43 type  2   force =    -0.00019616   -0.00009569   -0.00001643
     atom   44 type  2   force =     0.00001754   -0.00015844   -0.00003635
     atom   45 type  2   force =    -0.00000247   -0.00016489    0.00005540
     atom   46 type  1   force =    -0.00014473   -0.00009083    0.00041096
     atom   47 type  2   force =     0.00002902   -0.00010411   -0.00021920
     atom   48 type  2   force =    -0.00020414   -0.00019433    0.00037726
     atom   49 type  2   force =    -0.00180376   -0.00310164   -0.00143172
     atom   50 type  3   force =     0.00076996    0.00340584    0.00552124
     atom   51 type  4   force =    -0.00144320   -0.00135433   -0.00015697
     atom   52 type  4   force =     0.00035501    0.00165792    0.00163707
     atom   53 type  4   force =    -0.00246361   -0.00424715   -0.00651520
     atom   54 type  4   force =    -0.00017841    0.00091657    0.00085446

     Total force =     0.342443     Total SCF correction =     0.001333
 !ASE

     Writing output data file calc.save
 
     init_run     :     65.83s CPU     77.51s WALL (       1 calls)
     electrons    :   2985.60s CPU   3427.54s WALL (       1 calls)
     forces       :     48.74s CPU     50.90s WALL (       1 calls)

     Called by init_run:
     wfcinit      :     57.96s CPU     68.88s WALL (       1 calls)
     potinit      :      1.35s CPU      1.57s WALL (       1 calls)

     Called by electrons:
     c_bands      :   2640.92s CPU   3022.11s WALL (      11 calls)
     sum_band     :    295.79s CPU    350.47s WALL (      11 calls)
     v_of_rho     :     12.17s CPU     14.88s WALL (      12 calls)
     newd         :     40.15s CPU     43.74s WALL (      12 calls)
     mix_rho      :      0.48s CPU      0.62s WALL (      11 calls)
     vdW_energy   :      2.75s CPU      3.19s WALL (      13 calls)
     vdW_ffts     :      3.04s CPU      3.88s WALL (      26 calls)
     vdW_v        :      1.23s CPU      1.40s WALL (      13 calls)

     Called by c_bands:
     init_us_2    :      6.83s CPU      7.39s WALL (     960 calls)
     cegterg      :   2598.77s CPU   2977.84s WALL (     440 calls)

     Called by *egterg:
     h_psi        :    961.94s CPU   1247.71s WALL (    2454 calls)
     s_psi        :    167.67s CPU    174.48s WALL (    2454 calls)
     g_psi        :      4.87s CPU      4.96s WALL (    1974 calls)
     cdiaghg      :    909.80s CPU    935.16s WALL (    2414 calls)

     Called by h_psi:
     add_vuspsi   :    169.52s CPU    176.69s WALL (    2454 calls)

     General routines
     calbec       :    246.56s CPU    253.24s WALL (    2934 calls)
     fft          :      6.27s CPU      7.94s WALL (    1029 calls)
     ffts         :      0.04s CPU      0.06s WALL (      46 calls)
     fftw         :    533.75s CPU    851.87s WALL (  783742 calls)
     interpolate  :      0.35s CPU      0.53s WALL (      46 calls)
     davcio       :      0.09s CPU      2.54s WALL (      40 calls)
 
     Parallel routines
     fft_scatter  :    267.37s CPU    442.95s WALL (  784817 calls)
 
     PWSCF        : 51m41.28s CPU    59m20.16s WALL

 
   This run was terminated on:  23:33:59  26Feb2018            

=------------------------------------------------------------------------------=
   JOB DONE.
=------------------------------------------------------------------------------=
