  python dir          : /home/vossj/suncat/lib/python2.7/site-packages/espresso
  espresso dir        : /home/vossj/suncat/esdld/espresso-dynpy-beef/bin
  pseudo dir          : /home/alatimer/bin/psp/esp_psp_w_gbrvRu/
  ase-espresso py git : ffa2778-git



     Program PWSCF v.5.1rc2 (svn rev. ) starts on 10Feb2018 at 21:19:38 

     This program is part of the open-source Quantum ESPRESSO suite
     for quantum simulation of materials; please cite
         "P. Giannozzi et al., J. Phys.:Condens. Matter 21 395502 (2009);
          URL http://www.quantum-espresso.org", 
     in publications or presentations arising from this work. More details at
     http://www.quantum-espresso.org/quote

     Parallel version (MPI), running on    16 processors
     R & G space division:  proc/nbgrp/npool/nimage =      16
     Reading input from pw.inp
     Message from routine read_cards :
     DEPRECATED: no units specified in CELL_PARAMETERS card

     Current dimensions of program PWSCF are:
     Max number of different atomic species (ntypx) = 10
     Max number of k-points (npk) =  40000
     Max angular momentum in pseudopotentials (lmaxx) =  3

     **************************************************************************
     Initializing libbeef V0.1.1 with the BEEF-vdW functional.
     Citation: Wellendorff et al., PRB 85, 235149 (2012).
     **************************************************************************


     IMPORTANT: XC functional enforced from input :
     Exchange-correlation      = BEEF ( 1  4 27 13 2)
     Any further DFT definition will be discarded
     Please, verify this is what you really want


     Subspace diagonalization in iterative solution of the eigenvalue problem:
     a serial algorithm will be used

 
     Parallelization info
     --------------------
     sticks:   dense  smooth     PW     G-vecs:    dense   smooth      PW
     Min         281     112     31                68535    17318    2565
     Max         282     113     32                68545    17369    2582
     Sum        4501    1795    503              1096637   277353   41113
 
     Generating pointlists ...
     new r_m :   0.4125 (alat units)  0.7795 (a.u.) for type    1
     new r_m :   0.4125 (alat units)  0.7795 (a.u.) for type    2


     bravais-lattice index     =            0
     lattice parameter (alat)  =       1.8897  a.u.
     unit-cell volume          =    7990.9933 (a.u.)^3
     number of atoms/cell      =           49
     number of atomic types    =            2
     number of electrons       =       390.00
     number of Kohn-Sham states=          295
     kinetic-energy cutoff     =      40.4243  Ry
     charge density cutoff     =     404.2426  Ry
     convergence threshold     =      7.3E-07
     mixing beta               =       0.1000
     number of iterations used =           10  plain     mixing
     Exchange-correlation      = BEEF ( 1  4 27 13 2)
     nstep                     =           50


     celldm(1)=   1.889726  celldm(2)=   0.000000  celldm(3)=   0.000000
     celldm(4)=   0.000000  celldm(5)=   0.000000  celldm(6)=   0.000000

     crystal axes: (cart. coord. in units of alat)
               a(1) = (   6.590708   0.000000   0.000000 )  
               a(2) = (   0.000000   5.950229   0.000000 )  
               a(3) = (   0.000000   0.000000  30.195235 )  

     reciprocal axes: (cart. coord. in units 2 pi/alat)
               b(1) = (  0.151729  0.000000  0.000000 )  
               b(2) = (  0.000000  0.168061  0.000000 )  
               b(3) = (  0.000000  0.000000  0.033118 )  


     PseudoPot. # 1 for Ti read from file:
     /home/alatimer/bin/psp/esp_psp_w_gbrvRu/Ti.UPF
     MD5 check sum: 8e4df49b7f0d34bbd5052bf3f5ea0213
     Pseudo is Ultrasoft, Zval = 12.0
     Generated by new atomic code, or converted to UPF format
     Using radial grid of  851 points,  6 beta functions with: 
                l(1) =   0
                l(2) =   0
                l(3) =   1
                l(4) =   1
                l(5) =   2
                l(6) =   2
     Q(r) pseudized with  8 coefficients,  rinner =    1.000   1.000   1.000
                                                       1.000   1.000

     PseudoPot. # 2 for  O read from file:
     /home/alatimer/bin/psp/esp_psp_w_gbrvRu/O.UPF
     MD5 check sum: e057bbcf3229fb5d8c36c0c92f9568b4
     Pseudo is Ultrasoft + core correction, Zval =  6.0
     Generated using "atomic" code by A. Dal Corso  v.5.0.2 svn rev. 9415
     Using radial grid of 1095 points,  4 beta functions with: 
                l(1) =   0
                l(2) =   0
                l(3) =   1
                l(4) =   1
     Q(r) pseudized with 0 coefficients 


     vdW kernel table read from file vdW_kernel_table
     MD5 check sum: 095c7af220d748ca6e76c0b4c6cfb241

     atomic species   valence    mass     pseudopotential
        Ti1           12.00    47.88000     Ti( 1.00)
        O1             6.00    15.99940      O( 1.00)

     Starting magnetic structure 
     atomic species   magnetization
        Ti1          0.250
        O1           0.500

     No symmetry found



   Cartesian axes

     site n.     atom                  positions (alat units)
         1           Ti1 tau(   1) = (   1.6476770   0.7437786   2.6545865  )
         2           O1  tau(   2) = (   1.6476770   2.2313359   3.9361215  )
         3           Ti1 tau(   3) = (   1.6476770   2.2313359   5.9499405  )
         4           O1  tau(   4) = (   0.3661420   0.7437786   5.9499405  )
         5           Ti1 tau(   5) = (   1.5277661   0.7316361   9.1979924  )
         6           O1  tau(   6) = (   1.6632133   2.1793878  10.6093433  )
         7           Ti1 tau(   7) = (   1.6165400   2.1742892  12.4450098  )
         8           O1  tau(   8) = (   0.4211133   0.7189415  12.7146628  )
         9           Ti1 tau(   9) = (   1.6476770   3.7188931   2.6545865  )
        10           O1  tau(  10) = (   1.6476770   5.2064503   3.9361215  )
        11           Ti1 tau(  11) = (   1.6476770   5.2064503   5.9499405  )
        12           O1  tau(  12) = (   0.3661420   3.7188931   5.9499405  )
        13           Ti1 tau(  13) = (   1.5318737   3.7073984   9.2114718  )
        14           O1  tau(  14) = (   1.6603548   5.2054729  10.6082275  )
        15           Ti1 tau(  15) = (   1.6160620   5.2125286  12.4458513  )
        16           O1  tau(  16) = (   0.3672395   3.6890226  12.4512313  )
        17           O1  tau(  17) = (   1.6476770   2.2313359   1.3730516  )
        18           Ti1 tau(  18) = (   4.9430310   2.2313359   2.6545865  )
        19           O1  tau(  19) = (   4.9430310   2.2313359   4.6684056  )
        20           O1  tau(  20) = (   6.2245660   0.7437786   2.6545865  )
        21           O1  tau(  21) = (   3.6614961   0.7437786   2.6545865  )
        22           Ti1 tau(  22) = (   4.9430310   0.7437786   5.9499405  )
        23           O1  tau(  23) = (   1.6494130   2.2266810   8.0229920  )
        24           O1  tau(  24) = (   4.9430310   2.2313359   7.2314755  )
        25           O1  tau(  25) = (   2.9292120   0.7437786   5.9499405  )
        26           Ti1 tau(  26) = (   4.8570045   2.2038353   9.3960648  )
        27           O1  tau(  27) = (   4.9365002   2.1563787  11.2526517  )
        28           O1  tau(  28) = (   6.2661622   0.7265345   9.2570196  )
        29           O1  tau(  29) = (   3.6607207   0.7252434   9.2585875  )
        30           Ti1 tau(  30) = (   4.8804456   0.7009689  12.7500804  )
        31           O1  tau(  31) = (   4.9885443   2.2055297  13.8060867  )
        32           O1  tau(  32) = (   2.8787315   0.7196740  12.7638696  )
        33           O1  tau(  33) = (   1.6476770   5.2064503   1.3730516  )
        34           Ti1 tau(  34) = (   4.9430310   5.2064503   2.6545865  )
        35           O1  tau(  35) = (   4.9430310   5.2064503   4.6684056  )
        36           O1  tau(  36) = (   6.2245660   3.7188931   2.6545865  )
        37           O1  tau(  37) = (   3.6614961   3.7188931   2.6545865  )
        38           Ti1 tau(  38) = (   4.9430310   3.7188931   5.9499405  )
        39           O1  tau(  39) = (   1.6492404   5.1840375   8.0235373  )
        40           O1  tau(  40) = (   4.9430310   5.2064503   7.2314755  )
        41           O1  tau(  41) = (   2.9292120   3.7188931   5.9499405  )
        42           Ti1 tau(  42) = (   4.8583452   5.1875290   9.3946917  )
        43           O1  tau(  43) = (   4.9366536   5.2195535  11.2514306  )
        44           O1  tau(  44) = (   6.2660656   3.7009687   9.2894568  )
        45           O1  tau(  45) = (   3.6605616   3.6984666   9.2954459  )
        46           Ti1 tau(  46) = (   5.1078939   3.6751672  12.7268755  )
        47           O1  tau(  47) = (   4.9880347   5.1576104  13.8055399  )
        48           O1  tau(  48) = (   3.0285069   3.6936269  12.4216869  )
        49           O1  tau(  49) = (   2.3858682   3.6994311  13.7164468  )

     number of k points=    40  Fermi-Dirac smearing, width (Ry)=  0.0073
                       cart. coord. in units 2pi/alat
        k(    1) = (   0.0000000   0.0000000   0.0000000), wk =   0.0277778
        k(    2) = (   0.0000000   0.0280101   0.0000000), wk =   0.0555556
        k(    3) = (   0.0000000   0.0560203   0.0000000), wk =   0.0555556
        k(    4) = (   0.0000000  -0.0840304   0.0000000), wk =   0.0277778
        k(    5) = (   0.0252881   0.0000000   0.0000000), wk =   0.0555556
        k(    6) = (   0.0252881   0.0280101   0.0000000), wk =   0.0555556
        k(    7) = (   0.0252881   0.0560203   0.0000000), wk =   0.0555556
        k(    8) = (   0.0252881  -0.0840304   0.0000000), wk =   0.0555556
        k(    9) = (   0.0505763   0.0000000   0.0000000), wk =   0.0555556
        k(   10) = (   0.0505763   0.0280101   0.0000000), wk =   0.0555556
        k(   11) = (   0.0505763   0.0560203   0.0000000), wk =   0.0555556
        k(   12) = (   0.0505763  -0.0840304   0.0000000), wk =   0.0555556
        k(   13) = (  -0.0758644   0.0000000   0.0000000), wk =   0.0277778
        k(   14) = (  -0.0758644   0.0280101   0.0000000), wk =   0.0555556
        k(   15) = (  -0.0758644   0.0560203   0.0000000), wk =   0.0555556
        k(   16) = (  -0.0758644  -0.0840304   0.0000000), wk =   0.0277778
        k(   17) = (  -0.0252881   0.0280101   0.0000000), wk =   0.0555556
        k(   18) = (  -0.0252881   0.0560203   0.0000000), wk =   0.0555556
        k(   19) = (  -0.0505763   0.0280101   0.0000000), wk =   0.0555556
        k(   20) = (  -0.0505763   0.0560203   0.0000000), wk =   0.0555556
        k(   21) = (   0.0000000   0.0000000   0.0000000), wk =   0.0277778
        k(   22) = (   0.0000000   0.0280101   0.0000000), wk =   0.0555556
        k(   23) = (   0.0000000   0.0560203   0.0000000), wk =   0.0555556
        k(   24) = (   0.0000000  -0.0840304   0.0000000), wk =   0.0277778
        k(   25) = (   0.0252881   0.0000000   0.0000000), wk =   0.0555556
        k(   26) = (   0.0252881   0.0280101   0.0000000), wk =   0.0555556
        k(   27) = (   0.0252881   0.0560203   0.0000000), wk =   0.0555556
        k(   28) = (   0.0252881  -0.0840304   0.0000000), wk =   0.0555556
        k(   29) = (   0.0505763   0.0000000   0.0000000), wk =   0.0555556
        k(   30) = (   0.0505763   0.0280101   0.0000000), wk =   0.0555556
        k(   31) = (   0.0505763   0.0560203   0.0000000), wk =   0.0555556
        k(   32) = (   0.0505763  -0.0840304   0.0000000), wk =   0.0555556
        k(   33) = (  -0.0758644   0.0000000   0.0000000), wk =   0.0277778
        k(   34) = (  -0.0758644   0.0280101   0.0000000), wk =   0.0555556
        k(   35) = (  -0.0758644   0.0560203   0.0000000), wk =   0.0555556
        k(   36) = (  -0.0758644  -0.0840304   0.0000000), wk =   0.0277778
        k(   37) = (  -0.0252881   0.0280101   0.0000000), wk =   0.0555556
        k(   38) = (  -0.0252881   0.0560203   0.0000000), wk =   0.0555556
        k(   39) = (  -0.0505763   0.0280101   0.0000000), wk =   0.0555556
        k(   40) = (  -0.0505763   0.0560203   0.0000000), wk =   0.0555556

     Dense  grid:  1096637 G-vectors     FFT dimensions: (  80,  72, 375)

     Smooth grid:   277353 G-vectors     FFT dimensions: (  54,  45, 240)

     Largest allocated arrays     est. size (Mb)     dimensions
        Kohn-Sham Wavefunctions         9.81 Mb     (    2180,  295)
        NL pseudopotentials            18.36 Mb     (    2180,  552)
        Each V/rho on FFT grid          4.22 Mb     (  138240,   2)
        Each G-vector array             0.52 Mb     (   68538)
        G-vector shells                 0.25 Mb     (   33046)
     Largest temporary arrays     est. size (Mb)     dimensions
        Auxiliary wavefunctions        39.25 Mb     (    2180, 1180)
        Each subspace H/S matrix       21.25 Mb     (    1180, 1180)
        Each <psi_i|beta_j> matrix      2.48 Mb     (     552,  295)
        Arrays for rho mixing          21.09 Mb     (  138240,   10)

     Check: negative/imaginary core charge=   -0.000049    0.000000

     The initial density is read from file :
     ./calc.save/charge-density.dat


     negative rho (up, down):  1.430E-02 1.430E-02


     ************************************************************************
     *
     * You are using vdW-DF for exchange-correlation in this calculation.
     * Please cite the following three references that made this development
     * possible:
     *
     *   M. Dion, H. Rydberg, E. Schroder, D. C. Langreth, and
     *   B. I. Lundqvist, Phys. Rev. Lett. 92, 246401 (2004).
     *
     *   T. Thonhauser, V. R. Cooper, S. Li, A. Puzder, P. Hyldgaard, and
     *   D. C. Langreth, Phys. Rev. B 76, 125112 (2007).
     *
     *   G. Roman-Perez and J. M. Soler, Phys. Rev. Lett. 103, 096102 (2009).
     *
     *
     * If you are using vdW-DF2, please also cite:
     *
     *   K. Lee, E. D. Murray, L. Kong, B. I. Lundqvist, and
     *   D. C. Langreth, Phys. Rev. B 82, 081101(R) (2010).
     *
     *
     * If you are calculating the stress with vdW-DF, please also cite:
     *
     *   R. Sabatini, E. Kucukbenli, B. Kolb, T. Thonhauser, and
     *   S. de Gironcoli, J. Phys.: Condens. Matter 24, 424209 (2012).
     *
     ************************************************************************

     Carrying out vdW-DF run using the following parameters:

     Nqs =      20    Nr_points =    1024   r_max =   100.000
     q_mesh =
               0.00001000     0.04494208     0.09755937     0.15916263
               0.23128650     0.31572767     0.41458969     0.53033537
               0.66584808     0.82450364     1.01025438     1.22772762
               1.48234092     1.78043706     2.12944203     2.53805004
               3.01644009     3.57652955     4.23227104     5.00000000

     Gradients computed in reciprocal space

     ************************************************************************


     Starting wfc are  292 randomized atomic wfcs +    3 random wfc

     total cpu time spent up to now is       68.5 secs

     Self-consistent Calculation

     iteration #  1     ecut=    40.42 Ry     beta=0.10
     Davidson diagonalization with overlap
     c_bands:  1 eigenvalues not converged
     c_bands:  1 eigenvalues not converged
     ethr =  1.00E-05,  avg # of iterations = 17.4

     negative rho (up, down):  1.431E-02 1.431E-02
 
     Magnetic moment per site:
     atom:    1    charge:    3.1252    magn:   -0.0002    constr:    0.0000
     atom:    2    charge:    2.0894    magn:    0.0000    constr:    0.0000
     atom:    3    charge:    3.1197    magn:   -0.0000    constr:    0.0000
     atom:    4    charge:    2.0871    magn:   -0.0001    constr:    0.0000
     atom:    5    charge:    3.1168    magn:    0.0000    constr:    0.0000
     atom:    6    charge:    2.0892    magn:   -0.0001    constr:    0.0000
     atom:    7    charge:    3.1233    magn:    0.0001    constr:    0.0000
     atom:    8    charge:    2.0859    magn:   -0.0001    constr:    0.0000
     atom:    9    charge:    3.1252    magn:   -0.0002    constr:    0.0000
     atom:   10    charge:    2.0894    magn:    0.0000    constr:    0.0000
     atom:   11    charge:    3.1198    magn:   -0.0000    constr:    0.0000
     atom:   12    charge:    2.0871    magn:   -0.0001    constr:    0.0000
     atom:   13    charge:    3.1150    magn:    0.0000    constr:    0.0000
     atom:   14    charge:    2.0878    magn:   -0.0001    constr:    0.0000
     atom:   15    charge:    3.1192    magn:    0.0001    constr:    0.0000
     atom:   16    charge:    2.1007    magn:   -0.0002    constr:    0.0000
     atom:   17    charge:    2.0617    magn:    0.0006    constr:    0.0000
     atom:   18    charge:    3.1237    magn:   -0.0001    constr:    0.0000
     atom:   19    charge:    2.0878    magn:   -0.0000    constr:    0.0000
     atom:   20    charge:    2.0846    magn:    0.0001    constr:    0.0000
     atom:   21    charge:    2.0846    magn:    0.0001    constr:    0.0000
     atom:   22    charge:    3.1196    magn:    0.0000    constr:    0.0000
     atom:   23    charge:    2.0901    magn:   -0.0001    constr:    0.0000
     atom:   24    charge:    2.0792    magn:   -0.0000    constr:    0.0000
     atom:   25    charge:    2.0869    magn:   -0.0001    constr:    0.0000
     atom:   26    charge:    3.1150    magn:    0.0000    constr:    0.0000
     atom:   27    charge:    2.0822    magn:   -0.0001    constr:    0.0000
     atom:   28    charge:    2.0884    magn:   -0.0001    constr:    0.0000
     atom:   29    charge:    2.0876    magn:   -0.0001    constr:    0.0000
     atom:   30    charge:    3.1185    magn:    0.0000    constr:    0.0000
     atom:   31    charge:    2.0815    magn:   -0.0001    constr:    0.0000
     atom:   32    charge:    2.0853    magn:   -0.0001    constr:    0.0000
     atom:   33    charge:    2.0617    magn:    0.0006    constr:    0.0000
     atom:   34    charge:    3.1237    magn:   -0.0001    constr:    0.0000
     atom:   35    charge:    2.0878    magn:   -0.0000    constr:    0.0000
     atom:   36    charge:    2.0846    magn:    0.0001    constr:    0.0000
     atom:   37    charge:    2.0846    magn:    0.0001    constr:    0.0000
     atom:   38    charge:    3.1196    magn:    0.0000    constr:    0.0000
     atom:   39    charge:    2.0908    magn:   -0.0001    constr:    0.0000
     atom:   40    charge:    2.0792    magn:   -0.0000    constr:    0.0000
     atom:   41    charge:    2.0869    magn:   -0.0001    constr:    0.0000
     atom:   42    charge:    3.1147    magn:    0.0000    constr:    0.0000
     atom:   43    charge:    2.0821    magn:   -0.0001    constr:    0.0000
     atom:   44    charge:    2.0857    magn:   -0.0001    constr:    0.0000
     atom:   45    charge:    2.0876    magn:   -0.0001    constr:    0.0000
     atom:   46    charge:    3.1246    magn:    0.0001    constr:    0.0000
     atom:   47    charge:    2.0825    magn:   -0.0001    constr:    0.0000
     atom:   48    charge:    2.0767    magn:   -0.0001    constr:    0.0000
     atom:   49    charge:    2.0332    magn:   -0.0001    constr:    0.0000

     total cpu time spent up to now is      829.1 secs

     total energy              =   -3004.20024288 Ry
     Harris-Foulkes estimate   =   -3004.22476766 Ry
     estimated scf accuracy    <       0.15276280 Ry

     total magnetization       =     0.00 Bohr mag/cell
     absolute magnetization    =     0.01 Bohr mag/cell

     iteration #  2     ecut=    40.42 Ry     beta=0.10
     Davidson diagonalization with overlap
     ethr =  3.92E-05,  avg # of iterations =  3.5

     negative rho (up, down):  1.433E-02 1.433E-02
 
     Magnetic moment per site:
     atom:    1    charge:    3.1250    magn:   -0.0002    constr:    0.0000
     atom:    2    charge:    2.0894    magn:    0.0000    constr:    0.0000
     atom:    3    charge:    3.1196    magn:   -0.0000    constr:    0.0000
     atom:    4    charge:    2.0871    magn:   -0.0001    constr:    0.0000
     atom:    5    charge:    3.1167    magn:    0.0000    constr:    0.0000
     atom:    6    charge:    2.0890    magn:   -0.0001    constr:    0.0000
     atom:    7    charge:    3.1239    magn:    0.0001    constr:    0.0000
     atom:    8    charge:    2.0860    magn:   -0.0001    constr:    0.0000
     atom:    9    charge:    3.1250    magn:   -0.0002    constr:    0.0000
     atom:   10    charge:    2.0894    magn:    0.0000    constr:    0.0000
     atom:   11    charge:    3.1196    magn:   -0.0000    constr:    0.0000
     atom:   12    charge:    2.0871    magn:   -0.0001    constr:    0.0000
     atom:   13    charge:    3.1148    magn:    0.0000    constr:    0.0000
     atom:   14    charge:    2.0876    magn:   -0.0001    constr:    0.0000
     atom:   15    charge:    3.1198    magn:    0.0001    constr:    0.0000
     atom:   16    charge:    2.1010    magn:   -0.0001    constr:    0.0000
     atom:   17    charge:    2.0622    magn:    0.0005    constr:    0.0000
     atom:   18    charge:    3.1239    magn:   -0.0001    constr:    0.0000
     atom:   19    charge:    2.0877    magn:   -0.0000    constr:    0.0000
     atom:   20    charge:    2.0846    magn:    0.0001    constr:    0.0000
     atom:   21    charge:    2.0846    magn:    0.0001    constr:    0.0000
     atom:   22    charge:    3.1196    magn:    0.0000    constr:    0.0000
     atom:   23    charge:    2.0902    magn:   -0.0001    constr:    0.0000
     atom:   24    charge:    2.0789    magn:   -0.0000    constr:    0.0000
     atom:   25    charge:    2.0869    magn:   -0.0001    constr:    0.0000
     atom:   26    charge:    3.1149    magn:    0.0000    constr:    0.0000
     atom:   27    charge:    2.0821    magn:   -0.0001    constr:    0.0000
     atom:   28    charge:    2.0884    magn:   -0.0001    constr:    0.0000
     atom:   29    charge:    2.0876    magn:   -0.0001    constr:    0.0000
     atom:   30    charge:    3.1184    magn:    0.0000    constr:    0.0000
     atom:   31    charge:    2.0816    magn:   -0.0001    constr:    0.0000
     atom:   32    charge:    2.0853    magn:   -0.0001    constr:    0.0000
     atom:   33    charge:    2.0622    magn:    0.0005    constr:    0.0000
     atom:   34    charge:    3.1239    magn:   -0.0001    constr:    0.0000
     atom:   35    charge:    2.0877    magn:   -0.0000    constr:    0.0000
     atom:   36    charge:    2.0846    magn:    0.0001    constr:    0.0000
     atom:   37    charge:    2.0846    magn:    0.0001    constr:    0.0000
     atom:   38    charge:    3.1196    magn:    0.0000    constr:    0.0000
     atom:   39    charge:    2.0908    magn:   -0.0001    constr:    0.0000
     atom:   40    charge:    2.0790    magn:   -0.0000    constr:    0.0000
     atom:   41    charge:    2.0869    magn:   -0.0000    constr:    0.0000
     atom:   42    charge:    3.1146    magn:    0.0000    constr:    0.0000
     atom:   43    charge:    2.0820    magn:   -0.0001    constr:    0.0000
     atom:   44    charge:    2.0857    magn:   -0.0001    constr:    0.0000
     atom:   45    charge:    2.0875    magn:   -0.0001    constr:    0.0000
     atom:   46    charge:    3.1242    magn:    0.0000    constr:    0.0000
     atom:   47    charge:    2.0826    magn:   -0.0001    constr:    0.0000
     atom:   48    charge:    2.0827    magn:   -0.0001    constr:    0.0000
     atom:   49    charge:    2.0353    magn:   -0.0001    constr:    0.0000

     total cpu time spent up to now is     1038.4 secs

     total energy              =   -3004.18335063 Ry
     Harris-Foulkes estimate   =   -3004.20384003 Ry
     estimated scf accuracy    <       0.07142679 Ry

     total magnetization       =     0.00 Bohr mag/cell
     absolute magnetization    =     0.01 Bohr mag/cell

     iteration #  3     ecut=    40.42 Ry     beta=0.10
     Davidson diagonalization with overlap
     ethr =  1.83E-05,  avg # of iterations =  5.8

     negative rho (up, down):  1.434E-02 1.434E-02
 
     Magnetic moment per site:
     atom:    1    charge:    3.1250    magn:   -0.0002    constr:    0.0000
     atom:    2    charge:    2.0895    magn:    0.0000    constr:    0.0000
     atom:    3    charge:    3.1195    magn:   -0.0000    constr:    0.0000
     atom:    4    charge:    2.0871    magn:   -0.0000    constr:    0.0000
     atom:    5    charge:    3.1167    magn:    0.0000    constr:    0.0000
     atom:    6    charge:    2.0887    magn:   -0.0001    constr:    0.0000
     atom:    7    charge:    3.1229    magn:    0.0001    constr:    0.0000
     atom:    8    charge:    2.0880    magn:   -0.0001    constr:    0.0000
     atom:    9    charge:    3.1250    magn:   -0.0002    constr:    0.0000
     atom:   10    charge:    2.0895    magn:    0.0000    constr:    0.0000
     atom:   11    charge:    3.1195    magn:   -0.0000    constr:    0.0000
     atom:   12    charge:    2.0870    magn:   -0.0000    constr:    0.0000
     atom:   13    charge:    3.1145    magn:    0.0000    constr:    0.0000
     atom:   14    charge:    2.0874    magn:   -0.0001    constr:    0.0000
     atom:   15    charge:    3.1188    magn:    0.0001    constr:    0.0000
     atom:   16    charge:    2.1011    magn:   -0.0001    constr:    0.0000
     atom:   17    charge:    2.0626    magn:    0.0004    constr:    0.0000
     atom:   18    charge:    3.1240    magn:   -0.0001    constr:    0.0000
     atom:   19    charge:    2.0877    magn:   -0.0000    constr:    0.0000
     atom:   20    charge:    2.0846    magn:    0.0001    constr:    0.0000
     atom:   21    charge:    2.0846    magn:    0.0001    constr:    0.0000
     atom:   22    charge:    3.1197    magn:    0.0000    constr:    0.0000
     atom:   23    charge:    2.0904    magn:   -0.0001    constr:    0.0000
     atom:   24    charge:    2.0787    magn:   -0.0000    constr:    0.0000
     atom:   25    charge:    2.0869    magn:   -0.0000    constr:    0.0000
     atom:   26    charge:    3.1148    magn:    0.0000    constr:    0.0000
     atom:   27    charge:    2.0815    magn:   -0.0001    constr:    0.0000
     atom:   28    charge:    2.0885    magn:   -0.0001    constr:    0.0000
     atom:   29    charge:    2.0876    magn:   -0.0001    constr:    0.0000
     atom:   30    charge:    3.1180    magn:    0.0000    constr:    0.0000
     atom:   31    charge:    2.0836    magn:   -0.0000    constr:    0.0000
     atom:   32    charge:    2.0865    magn:   -0.0001    constr:    0.0000
     atom:   33    charge:    2.0626    magn:    0.0004    constr:    0.0000
     atom:   34    charge:    3.1240    magn:   -0.0001    constr:    0.0000
     atom:   35    charge:    2.0877    magn:   -0.0000    constr:    0.0000
     atom:   36    charge:    2.0846    magn:    0.0001    constr:    0.0000
     atom:   37    charge:    2.0846    magn:    0.0001    constr:    0.0000
     atom:   38    charge:    3.1197    magn:    0.0000    constr:    0.0000
     atom:   39    charge:    2.0911    magn:   -0.0001    constr:    0.0000
     atom:   40    charge:    2.0788    magn:   -0.0000    constr:    0.0000
     atom:   41    charge:    2.0869    magn:   -0.0000    constr:    0.0000
     atom:   42    charge:    3.1145    magn:    0.0000    constr:    0.0000
     atom:   43    charge:    2.0814    magn:   -0.0001    constr:    0.0000
     atom:   44    charge:    2.0858    magn:   -0.0001    constr:    0.0000
     atom:   45    charge:    2.0873    magn:   -0.0001    constr:    0.0000
     atom:   46    charge:    3.1237    magn:    0.0000    constr:    0.0000
     atom:   47    charge:    2.0846    magn:   -0.0000    constr:    0.0000
     atom:   48    charge:    2.0808    magn:   -0.0001    constr:    0.0000
     atom:   49    charge:    2.0431    magn:   -0.0001    constr:    0.0000

     total cpu time spent up to now is     1284.1 secs

     total energy              =   -3004.17569386 Ry
     Harris-Foulkes estimate   =   -3004.18681786 Ry
     estimated scf accuracy    <       0.02565338 Ry

     total magnetization       =     0.00 Bohr mag/cell
     absolute magnetization    =     0.01 Bohr mag/cell

     iteration #  4     ecut=    40.42 Ry     beta=0.10
     Davidson diagonalization with overlap
     ethr =  6.58E-06,  avg # of iterations =  7.0

     negative rho (up, down):  1.435E-02 1.435E-02
 
     Magnetic moment per site:
     atom:    1    charge:    3.1251    magn:   -0.0001    constr:    0.0000
     atom:    2    charge:    2.0895    magn:    0.0000    constr:    0.0000
     atom:    3    charge:    3.1196    magn:   -0.0000    constr:    0.0000
     atom:    4    charge:    2.0870    magn:   -0.0000    constr:    0.0000
     atom:    5    charge:    3.1168    magn:    0.0000    constr:    0.0000
     atom:    6    charge:    2.0889    magn:   -0.0001    constr:    0.0000
     atom:    7    charge:    3.1218    magn:    0.0001    constr:    0.0000
     atom:    8    charge:    2.0890    magn:   -0.0001    constr:    0.0000
     atom:    9    charge:    3.1251    magn:   -0.0001    constr:    0.0000
     atom:   10    charge:    2.0895    magn:    0.0000    constr:    0.0000
     atom:   11    charge:    3.1196    magn:   -0.0000    constr:    0.0000
     atom:   12    charge:    2.0870    magn:   -0.0000    constr:    0.0000
     atom:   13    charge:    3.1146    magn:    0.0000    constr:    0.0000
     atom:   14    charge:    2.0876    magn:   -0.0001    constr:    0.0000
     atom:   15    charge:    3.1177    magn:    0.0001    constr:    0.0000
     atom:   16    charge:    2.1006    magn:   -0.0001    constr:    0.0000
     atom:   17    charge:    2.0623    magn:    0.0003    constr:    0.0000
     atom:   18    charge:    3.1239    magn:   -0.0001    constr:    0.0000
     atom:   19    charge:    2.0877    magn:   -0.0000    constr:    0.0000
     atom:   20    charge:    2.0847    magn:    0.0001    constr:    0.0000
     atom:   21    charge:    2.0847    magn:    0.0001    constr:    0.0000
     atom:   22    charge:    3.1196    magn:    0.0000    constr:    0.0000
     atom:   23    charge:    2.0905    magn:   -0.0000    constr:    0.0000
     atom:   24    charge:    2.0789    magn:   -0.0000    constr:    0.0000
     atom:   25    charge:    2.0869    magn:   -0.0000    constr:    0.0000
     atom:   26    charge:    3.1149    magn:    0.0000    constr:    0.0000
     atom:   27    charge:    2.0814    magn:   -0.0000    constr:    0.0000
     atom:   28    charge:    2.0886    magn:   -0.0000    constr:    0.0000
     atom:   29    charge:    2.0875    magn:   -0.0001    constr:    0.0000
     atom:   30    charge:    3.1181    magn:    0.0000    constr:    0.0000
     atom:   31    charge:    2.0844    magn:   -0.0000    constr:    0.0000
     atom:   32    charge:    2.0871    magn:   -0.0001    constr:    0.0000
     atom:   33    charge:    2.0623    magn:    0.0003    constr:    0.0000
     atom:   34    charge:    3.1239    magn:   -0.0001    constr:    0.0000
     atom:   35    charge:    2.0877    magn:   -0.0000    constr:    0.0000
     atom:   36    charge:    2.0847    magn:    0.0000    constr:    0.0000
     atom:   37    charge:    2.0847    magn:    0.0000    constr:    0.0000
     atom:   38    charge:    3.1196    magn:    0.0000    constr:    0.0000
     atom:   39    charge:    2.0911    magn:   -0.0000    constr:    0.0000
     atom:   40    charge:    2.0790    magn:   -0.0000    constr:    0.0000
     atom:   41    charge:    2.0869    magn:   -0.0000    constr:    0.0000
     atom:   42    charge:    3.1146    magn:    0.0000    constr:    0.0000
     atom:   43    charge:    2.0813    magn:   -0.0000    constr:    0.0000
     atom:   44    charge:    2.0857    magn:   -0.0000    constr:    0.0000
     atom:   45    charge:    2.0872    magn:   -0.0001    constr:    0.0000
     atom:   46    charge:    3.1241    magn:    0.0000    constr:    0.0000
     atom:   47    charge:    2.0854    magn:   -0.0000    constr:    0.0000
     atom:   48    charge:    2.0741    magn:   -0.0001    constr:    0.0000
     atom:   49    charge:    2.0486    magn:   -0.0001    constr:    0.0000

     total cpu time spent up to now is     1553.7 secs

     total energy              =   -3004.17495934 Ry
     Harris-Foulkes estimate   =   -3004.17762578 Ry
     estimated scf accuracy    <       0.00555561 Ry

     total magnetization       =     0.00 Bohr mag/cell
     absolute magnetization    =     0.00 Bohr mag/cell

     iteration #  5     ecut=    40.42 Ry     beta=0.10
     Davidson diagonalization with overlap
     ethr =  1.42E-06,  avg # of iterations =  7.0

     negative rho (up, down):  1.435E-02 1.435E-02
 
     Magnetic moment per site:
     atom:    1    charge:    3.1251    magn:   -0.0001    constr:    0.0000
     atom:    2    charge:    2.0894    magn:    0.0000    constr:    0.0000
     atom:    3    charge:    3.1196    magn:   -0.0000    constr:    0.0000
     atom:    4    charge:    2.0870    magn:   -0.0000    constr:    0.0000
     atom:    5    charge:    3.1167    magn:    0.0000    constr:    0.0000
     atom:    6    charge:    2.0891    magn:   -0.0001    constr:    0.0000
     atom:    7    charge:    3.1219    magn:    0.0000    constr:    0.0000
     atom:    8    charge:    2.0880    magn:   -0.0001    constr:    0.0000
     atom:    9    charge:    3.1251    magn:   -0.0001    constr:    0.0000
     atom:   10    charge:    2.0894    magn:    0.0000    constr:    0.0000
     atom:   11    charge:    3.1196    magn:   -0.0000    constr:    0.0000
     atom:   12    charge:    2.0871    magn:   -0.0000    constr:    0.0000
     atom:   13    charge:    3.1148    magn:    0.0000    constr:    0.0000
     atom:   14    charge:    2.0877    magn:   -0.0001    constr:    0.0000
     atom:   15    charge:    3.1177    magn:    0.0000    constr:    0.0000
     atom:   16    charge:    2.1003    magn:   -0.0001    constr:    0.0000
     atom:   17    charge:    2.0623    magn:    0.0003    constr:    0.0000
     atom:   18    charge:    3.1239    magn:   -0.0001    constr:    0.0000
     atom:   19    charge:    2.0877    magn:   -0.0000    constr:    0.0000
     atom:   20    charge:    2.0847    magn:    0.0000    constr:    0.0000
     atom:   21    charge:    2.0847    magn:    0.0000    constr:    0.0000
     atom:   22    charge:    3.1196    magn:    0.0000    constr:    0.0000
     atom:   23    charge:    2.0903    magn:   -0.0000    constr:    0.0000
     atom:   24    charge:    2.0790    magn:   -0.0000    constr:    0.0000
     atom:   25    charge:    2.0869    magn:   -0.0000    constr:    0.0000
     atom:   26    charge:    3.1149    magn:    0.0000    constr:    0.0000
     atom:   27    charge:    2.0819    magn:   -0.0000    constr:    0.0000
     atom:   28    charge:    2.0885    magn:   -0.0000    constr:    0.0000
     atom:   29    charge:    2.0875    magn:   -0.0000    constr:    0.0000
     atom:   30    charge:    3.1182    magn:    0.0000    constr:    0.0000
     atom:   31    charge:    2.0839    magn:   -0.0000    constr:    0.0000
     atom:   32    charge:    2.0867    magn:   -0.0001    constr:    0.0000
     atom:   33    charge:    2.0623    magn:    0.0003    constr:    0.0000
     atom:   34    charge:    3.1239    magn:   -0.0001    constr:    0.0000
     atom:   35    charge:    2.0877    magn:   -0.0000    constr:    0.0000
     atom:   36    charge:    2.0847    magn:    0.0000    constr:    0.0000
     atom:   37    charge:    2.0847    magn:    0.0000    constr:    0.0000
     atom:   38    charge:    3.1196    magn:    0.0000    constr:    0.0000
     atom:   39    charge:    2.0910    magn:   -0.0000    constr:    0.0000
     atom:   40    charge:    2.0791    magn:   -0.0000    constr:    0.0000
     atom:   41    charge:    2.0869    magn:   -0.0000    constr:    0.0000
     atom:   42    charge:    3.1146    magn:    0.0000    constr:    0.0000
     atom:   43    charge:    2.0818    magn:   -0.0000    constr:    0.0000
     atom:   44    charge:    2.0857    magn:   -0.0000    constr:    0.0000
     atom:   45    charge:    2.0874    magn:   -0.0000    constr:    0.0000
     atom:   46    charge:    3.1245    magn:    0.0000    constr:    0.0000
     atom:   47    charge:    2.0849    magn:   -0.0000    constr:    0.0000
     atom:   48    charge:    2.0712    magn:   -0.0001    constr:    0.0000
     atom:   49    charge:    2.0488    magn:   -0.0001    constr:    0.0000

     total cpu time spent up to now is     1822.8 secs

     total energy              =   -3004.17533712 Ry
     Harris-Foulkes estimate   =   -3004.17558925 Ry
     estimated scf accuracy    <       0.00070063 Ry

     total magnetization       =     0.00 Bohr mag/cell
     absolute magnetization    =     0.00 Bohr mag/cell

     iteration #  6     ecut=    40.42 Ry     beta=0.10
     Davidson diagonalization with overlap
     ethr =  1.80E-07,  avg # of iterations =  2.0

     negative rho (up, down):  1.434E-02 1.434E-02
 
     Magnetic moment per site:
     atom:    1    charge:    3.1251    magn:   -0.0001    constr:    0.0000
     atom:    2    charge:    2.0895    magn:    0.0000    constr:    0.0000
     atom:    3    charge:    3.1196    magn:   -0.0000    constr:    0.0000
     atom:    4    charge:    2.0871    magn:   -0.0000    constr:    0.0000
     atom:    5    charge:    3.1167    magn:    0.0000    constr:    0.0000
     atom:    6    charge:    2.0890    magn:   -0.0000    constr:    0.0000
     atom:    7    charge:    3.1219    magn:    0.0000    constr:    0.0000
     atom:    8    charge:    2.0876    magn:   -0.0001    constr:    0.0000
     atom:    9    charge:    3.1251    magn:   -0.0001    constr:    0.0000
     atom:   10    charge:    2.0895    magn:    0.0000    constr:    0.0000
     atom:   11    charge:    3.1196    magn:   -0.0000    constr:    0.0000
     atom:   12    charge:    2.0871    magn:   -0.0000    constr:    0.0000
     atom:   13    charge:    3.1147    magn:    0.0000    constr:    0.0000
     atom:   14    charge:    2.0877    magn:   -0.0000    constr:    0.0000
     atom:   15    charge:    3.1177    magn:    0.0000    constr:    0.0000
     atom:   16    charge:    2.1003    magn:   -0.0001    constr:    0.0000
     atom:   17    charge:    2.0623    magn:    0.0003    constr:    0.0000
     atom:   18    charge:    3.1239    magn:   -0.0001    constr:    0.0000
     atom:   19    charge:    2.0877    magn:   -0.0000    constr:    0.0000
     atom:   20    charge:    2.0846    magn:    0.0000    constr:    0.0000
     atom:   21    charge:    2.0846    magn:    0.0000    constr:    0.0000
     atom:   22    charge:    3.1196    magn:    0.0000    constr:    0.0000
     atom:   23    charge:    2.0903    magn:   -0.0000    constr:    0.0000
     atom:   24    charge:    2.0789    magn:   -0.0000    constr:    0.0000
     atom:   25    charge:    2.0869    magn:   -0.0000    constr:    0.0000
     atom:   26    charge:    3.1149    magn:    0.0000    constr:    0.0000
     atom:   27    charge:    2.0819    magn:   -0.0000    constr:    0.0000
     atom:   28    charge:    2.0885    magn:   -0.0000    constr:    0.0000
     atom:   29    charge:    2.0876    magn:   -0.0000    constr:    0.0000
     atom:   30    charge:    3.1181    magn:    0.0000    constr:    0.0000
     atom:   31    charge:    2.0838    magn:   -0.0000    constr:    0.0000
     atom:   32    charge:    2.0865    magn:   -0.0001    constr:    0.0000
     atom:   33    charge:    2.0623    magn:    0.0003    constr:    0.0000
     atom:   34    charge:    3.1239    magn:   -0.0001    constr:    0.0000
     atom:   35    charge:    2.0878    magn:   -0.0000    constr:    0.0000
     atom:   36    charge:    2.0846    magn:    0.0000    constr:    0.0000
     atom:   37    charge:    2.0846    magn:    0.0000    constr:    0.0000
     atom:   38    charge:    3.1196    magn:    0.0000    constr:    0.0000
     atom:   39    charge:    2.0910    magn:   -0.0000    constr:    0.0000
     atom:   40    charge:    2.0790    magn:   -0.0000    constr:    0.0000
     atom:   41    charge:    2.0869    magn:   -0.0000    constr:    0.0000
     atom:   42    charge:    3.1146    magn:    0.0000    constr:    0.0000
     atom:   43    charge:    2.0818    magn:   -0.0000    constr:    0.0000
     atom:   44    charge:    2.0857    magn:   -0.0000    constr:    0.0000
     atom:   45    charge:    2.0874    magn:   -0.0000    constr:    0.0000
     atom:   46    charge:    3.1243    magn:    0.0000    constr:    0.0000
     atom:   47    charge:    2.0848    magn:   -0.0000    constr:    0.0000
     atom:   48    charge:    2.0716    magn:   -0.0000    constr:    0.0000
     atom:   49    charge:    2.0489    magn:   -0.0001    constr:    0.0000

     total cpu time spent up to now is     2015.9 secs

     total energy              =   -3004.17538397 Ry
     Harris-Foulkes estimate   =   -3004.17541647 Ry
     estimated scf accuracy    <       0.00014708 Ry

     total magnetization       =     0.00 Bohr mag/cell
     absolute magnetization    =     0.00 Bohr mag/cell

     iteration #  7     ecut=    40.42 Ry     beta=0.10
     Davidson diagonalization with overlap
     ethr =  3.77E-08,  avg # of iterations =  2.0

     negative rho (up, down):  1.434E-02 1.434E-02
 
     Magnetic moment per site:
     atom:    1    charge:    3.1251    magn:   -0.0001    constr:    0.0000
     atom:    2    charge:    2.0895    magn:    0.0000    constr:    0.0000
     atom:    3    charge:    3.1196    magn:   -0.0000    constr:    0.0000
     atom:    4    charge:    2.0871    magn:   -0.0000    constr:    0.0000
     atom:    5    charge:    3.1167    magn:    0.0000    constr:    0.0000
     atom:    6    charge:    2.0890    magn:   -0.0000    constr:    0.0000
     atom:    7    charge:    3.1219    magn:    0.0000    constr:    0.0000
     atom:    8    charge:    2.0871    magn:   -0.0000    constr:    0.0000
     atom:    9    charge:    3.1251    magn:   -0.0001    constr:    0.0000
     atom:   10    charge:    2.0895    magn:    0.0000    constr:    0.0000
     atom:   11    charge:    3.1196    magn:   -0.0000    constr:    0.0000
     atom:   12    charge:    2.0871    magn:   -0.0000    constr:    0.0000
     atom:   13    charge:    3.1147    magn:    0.0000    constr:    0.0000
     atom:   14    charge:    2.0876    magn:   -0.0000    constr:    0.0000
     atom:   15    charge:    3.1178    magn:    0.0000    constr:    0.0000
     atom:   16    charge:    2.1004    magn:   -0.0000    constr:    0.0000
     atom:   17    charge:    2.0622    magn:    0.0002    constr:    0.0000
     atom:   18    charge:    3.1239    magn:   -0.0000    constr:    0.0000
     atom:   19    charge:    2.0878    magn:   -0.0000    constr:    0.0000
     atom:   20    charge:    2.0846    magn:    0.0000    constr:    0.0000
     atom:   21    charge:    2.0846    magn:    0.0000    constr:    0.0000
     atom:   22    charge:    3.1196    magn:    0.0000    constr:    0.0000
     atom:   23    charge:    2.0903    magn:   -0.0000    constr:    0.0000
     atom:   24    charge:    2.0789    magn:   -0.0000    constr:    0.0000
     atom:   25    charge:    2.0869    magn:   -0.0000    constr:    0.0000
     atom:   26    charge:    3.1149    magn:    0.0000    constr:    0.0000
     atom:   27    charge:    2.0819    magn:   -0.0000    constr:    0.0000
     atom:   28    charge:    2.0885    magn:   -0.0000    constr:    0.0000
     atom:   29    charge:    2.0876    magn:   -0.0000    constr:    0.0000
     atom:   30    charge:    3.1182    magn:    0.0000    constr:    0.0000
     atom:   31    charge:    2.0834    magn:   -0.0000    constr:    0.0000
     atom:   32    charge:    2.0862    magn:   -0.0000    constr:    0.0000
     atom:   33    charge:    2.0622    magn:    0.0002    constr:    0.0000
     atom:   34    charge:    3.1239    magn:   -0.0000    constr:    0.0000
     atom:   35    charge:    2.0878    magn:   -0.0000    constr:    0.0000
     atom:   36    charge:    2.0846    magn:    0.0000    constr:    0.0000
     atom:   37    charge:    2.0846    magn:    0.0000    constr:    0.0000
     atom:   38    charge:    3.1196    magn:    0.0000    constr:    0.0000
     atom:   39    charge:    2.0909    magn:   -0.0000    constr:    0.0000
     atom:   40    charge:    2.0790    magn:   -0.0000    constr:    0.0000
     atom:   41    charge:    2.0869    magn:   -0.0000    constr:    0.0000
     atom:   42    charge:    3.1146    magn:    0.0000    constr:    0.0000
     atom:   43    charge:    2.0818    magn:   -0.0000    constr:    0.0000
     atom:   44    charge:    2.0857    magn:   -0.0000    constr:    0.0000
     atom:   45    charge:    2.0875    magn:   -0.0000    constr:    0.0000
     atom:   46    charge:    3.1242    magn:    0.0000    constr:    0.0000
     atom:   47    charge:    2.0844    magn:   -0.0000    constr:    0.0000
     atom:   48    charge:    2.0716    magn:   -0.0000    constr:    0.0000
     atom:   49    charge:    2.0489    magn:   -0.0000    constr:    0.0000

     total cpu time spent up to now is     2205.7 secs

     total energy              =   -3004.17537190 Ry
     Harris-Foulkes estimate   =   -3004.17539151 Ry
     estimated scf accuracy    <       0.00006259 Ry

     total magnetization       =     0.00 Bohr mag/cell
     absolute magnetization    =     0.00 Bohr mag/cell

     iteration #  8     ecut=    40.42 Ry     beta=0.10
     Davidson diagonalization with overlap
     ethr =  1.60E-08,  avg # of iterations =  2.0

     negative rho (up, down):  1.434E-02 1.434E-02
 
     Magnetic moment per site:
     atom:    1    charge:    3.1251    magn:   -0.0001    constr:    0.0000
     atom:    2    charge:    2.0895    magn:    0.0000    constr:    0.0000
     atom:    3    charge:    3.1196    magn:   -0.0000    constr:    0.0000
     atom:    4    charge:    2.0871    magn:   -0.0000    constr:    0.0000
     atom:    5    charge:    3.1167    magn:    0.0000    constr:    0.0000
     atom:    6    charge:    2.0890    magn:   -0.0000    constr:    0.0000
     atom:    7    charge:    3.1220    magn:    0.0000    constr:    0.0000
     atom:    8    charge:    2.0873    magn:   -0.0000    constr:    0.0000
     atom:    9    charge:    3.1251    magn:   -0.0001    constr:    0.0000
     atom:   10    charge:    2.0894    magn:    0.0000    constr:    0.0000
     atom:   11    charge:    3.1196    magn:   -0.0000    constr:    0.0000
     atom:   12    charge:    2.0871    magn:   -0.0000    constr:    0.0000
     atom:   13    charge:    3.1147    magn:    0.0000    constr:    0.0000
     atom:   14    charge:    2.0876    magn:   -0.0000    constr:    0.0000
     atom:   15    charge:    3.1178    magn:    0.0000    constr:    0.0000
     atom:   16    charge:    2.1005    magn:   -0.0000    constr:    0.0000
     atom:   17    charge:    2.0622    magn:    0.0002    constr:    0.0000
     atom:   18    charge:    3.1239    magn:   -0.0000    constr:    0.0000
     atom:   19    charge:    2.0878    magn:   -0.0000    constr:    0.0000
     atom:   20    charge:    2.0846    magn:    0.0000    constr:    0.0000
     atom:   21    charge:    2.0846    magn:    0.0000    constr:    0.0000
     atom:   22    charge:    3.1196    magn:    0.0000    constr:    0.0000
     atom:   23    charge:    2.0903    magn:   -0.0000    constr:    0.0000
     atom:   24    charge:    2.0789    magn:   -0.0000    constr:    0.0000
     atom:   25    charge:    2.0869    magn:   -0.0000    constr:    0.0000
     atom:   26    charge:    3.1149    magn:    0.0000    constr:    0.0000
     atom:   27    charge:    2.0818    magn:   -0.0000    constr:    0.0000
     atom:   28    charge:    2.0885    magn:   -0.0000    constr:    0.0000
     atom:   29    charge:    2.0876    magn:   -0.0000    constr:    0.0000
     atom:   30    charge:    3.1182    magn:    0.0000    constr:    0.0000
     atom:   31    charge:    2.0832    magn:   -0.0000    constr:    0.0000
     atom:   32    charge:    2.0861    magn:   -0.0000    constr:    0.0000
     atom:   33    charge:    2.0622    magn:    0.0002    constr:    0.0000
     atom:   34    charge:    3.1239    magn:   -0.0000    constr:    0.0000
     atom:   35    charge:    2.0878    magn:   -0.0000    constr:    0.0000
     atom:   36    charge:    2.0846    magn:    0.0000    constr:    0.0000
     atom:   37    charge:    2.0846    magn:    0.0000    constr:    0.0000
     atom:   38    charge:    3.1196    magn:    0.0000    constr:    0.0000
     atom:   39    charge:    2.0910    magn:   -0.0000    constr:    0.0000
     atom:   40    charge:    2.0790    magn:   -0.0000    constr:    0.0000
     atom:   41    charge:    2.0869    magn:   -0.0000    constr:    0.0000
     atom:   42    charge:    3.1146    magn:    0.0000    constr:    0.0000
     atom:   43    charge:    2.0818    magn:   -0.0000    constr:    0.0000
     atom:   44    charge:    2.0857    magn:   -0.0000    constr:    0.0000
     atom:   45    charge:    2.0874    magn:   -0.0000    constr:    0.0000
     atom:   46    charge:    3.1241    magn:    0.0000    constr:    0.0000
     atom:   47    charge:    2.0842    magn:   -0.0000    constr:    0.0000
     atom:   48    charge:    2.0719    magn:   -0.0000    constr:    0.0000
     atom:   49    charge:    2.0492    magn:   -0.0000    constr:    0.0000

     total cpu time spent up to now is     2401.5 secs

     total energy              =   -3004.17537470 Ry
     Harris-Foulkes estimate   =   -3004.17537790 Ry
     estimated scf accuracy    <       0.00001652 Ry

     total magnetization       =     0.00 Bohr mag/cell
     absolute magnetization    =     0.00 Bohr mag/cell

     iteration #  9     ecut=    40.42 Ry     beta=0.10
     Davidson diagonalization with overlap
     ethr =  4.24E-09,  avg # of iterations =  2.0

     negative rho (up, down):  1.433E-02 1.433E-02
 
     Magnetic moment per site:
     atom:    1    charge:    3.1251    magn:   -0.0001    constr:    0.0000
     atom:    2    charge:    2.0895    magn:    0.0000    constr:    0.0000
     atom:    3    charge:    3.1196    magn:   -0.0000    constr:    0.0000
     atom:    4    charge:    2.0871    magn:   -0.0000    constr:    0.0000
     atom:    5    charge:    3.1167    magn:    0.0000    constr:    0.0000
     atom:    6    charge:    2.0890    magn:   -0.0000    constr:    0.0000
     atom:    7    charge:    3.1221    magn:    0.0000    constr:    0.0000
     atom:    8    charge:    2.0873    magn:   -0.0000    constr:    0.0000
     atom:    9    charge:    3.1251    magn:   -0.0001    constr:    0.0000
     atom:   10    charge:    2.0895    magn:    0.0000    constr:    0.0000
     atom:   11    charge:    3.1196    magn:   -0.0000    constr:    0.0000
     atom:   12    charge:    2.0871    magn:   -0.0000    constr:    0.0000
     atom:   13    charge:    3.1147    magn:    0.0000    constr:    0.0000
     atom:   14    charge:    2.0876    magn:   -0.0000    constr:    0.0000
     atom:   15    charge:    3.1179    magn:    0.0000    constr:    0.0000
     atom:   16    charge:    2.1005    magn:   -0.0000    constr:    0.0000
     atom:   17    charge:    2.0622    magn:    0.0001    constr:    0.0000
     atom:   18    charge:    3.1239    magn:   -0.0000    constr:    0.0000
     atom:   19    charge:    2.0877    magn:   -0.0000    constr:    0.0000
     atom:   20    charge:    2.0846    magn:    0.0000    constr:    0.0000
     atom:   21    charge:    2.0846    magn:    0.0000    constr:    0.0000
     atom:   22    charge:    3.1196    magn:    0.0000    constr:    0.0000
     atom:   23    charge:    2.0903    magn:   -0.0000    constr:    0.0000
     atom:   24    charge:    2.0789    magn:   -0.0000    constr:    0.0000
     atom:   25    charge:    2.0869    magn:   -0.0000    constr:    0.0000
     atom:   26    charge:    3.1149    magn:    0.0000    constr:    0.0000
     atom:   27    charge:    2.0818    magn:   -0.0000    constr:    0.0000
     atom:   28    charge:    2.0885    magn:   -0.0000    constr:    0.0000
     atom:   29    charge:    2.0876    magn:   -0.0000    constr:    0.0000
     atom:   30    charge:    3.1182    magn:    0.0000    constr:    0.0000
     atom:   31    charge:    2.0831    magn:   -0.0000    constr:    0.0000
     atom:   32    charge:    2.0862    magn:   -0.0000    constr:    0.0000
     atom:   33    charge:    2.0622    magn:    0.0001    constr:    0.0000
     atom:   34    charge:    3.1239    magn:   -0.0000    constr:    0.0000
     atom:   35    charge:    2.0878    magn:   -0.0000    constr:    0.0000
     atom:   36    charge:    2.0846    magn:    0.0000    constr:    0.0000
     atom:   37    charge:    2.0846    magn:    0.0000    constr:    0.0000
     atom:   38    charge:    3.1196    magn:    0.0000    constr:    0.0000
     atom:   39    charge:    2.0910    magn:   -0.0000    constr:    0.0000
     atom:   40    charge:    2.0790    magn:   -0.0000    constr:    0.0000
     atom:   41    charge:    2.0869    magn:   -0.0000    constr:    0.0000
     atom:   42    charge:    3.1146    magn:    0.0000    constr:    0.0000
     atom:   43    charge:    2.0817    magn:   -0.0000    constr:    0.0000
     atom:   44    charge:    2.0857    magn:   -0.0000    constr:    0.0000
     atom:   45    charge:    2.0874    magn:   -0.0000    constr:    0.0000
     atom:   46    charge:    3.1241    magn:    0.0000    constr:    0.0000
     atom:   47    charge:    2.0842    magn:   -0.0000    constr:    0.0000
     atom:   48    charge:    2.0720    magn:   -0.0000    constr:    0.0000
     atom:   49    charge:    2.0493    magn:   -0.0000    constr:    0.0000

     total cpu time spent up to now is     2593.3 secs

     total energy              =   -3004.17537595 Ry
     Harris-Foulkes estimate   =   -3004.17537605 Ry
     estimated scf accuracy    <       0.00000377 Ry

     total magnetization       =     0.00 Bohr mag/cell
     absolute magnetization    =     0.00 Bohr mag/cell

     iteration # 10     ecut=    40.42 Ry     beta=0.10
     Davidson diagonalization with overlap
     ethr =  9.66E-10,  avg # of iterations =  2.0

     negative rho (up, down):  1.433E-02 1.433E-02
 
     Magnetic moment per site:
     atom:    1    charge:    3.1251    magn:   -0.0000    constr:    0.0000
     atom:    2    charge:    2.0895    magn:    0.0000    constr:    0.0000
     atom:    3    charge:    3.1196    magn:   -0.0000    constr:    0.0000
     atom:    4    charge:    2.0871    magn:   -0.0000    constr:    0.0000
     atom:    5    charge:    3.1167    magn:    0.0000    constr:    0.0000
     atom:    6    charge:    2.0890    magn:   -0.0000    constr:    0.0000
     atom:    7    charge:    3.1221    magn:    0.0000    constr:    0.0000
     atom:    8    charge:    2.0874    magn:   -0.0000    constr:    0.0000
     atom:    9    charge:    3.1251    magn:   -0.0000    constr:    0.0000
     atom:   10    charge:    2.0895    magn:    0.0000    constr:    0.0000
     atom:   11    charge:    3.1196    magn:   -0.0000    constr:    0.0000
     atom:   12    charge:    2.0871    magn:   -0.0000    constr:    0.0000
     atom:   13    charge:    3.1147    magn:    0.0000    constr:    0.0000
     atom:   14    charge:    2.0876    magn:   -0.0000    constr:    0.0000
     atom:   15    charge:    3.1180    magn:    0.0000    constr:    0.0000
     atom:   16    charge:    2.1005    magn:   -0.0000    constr:    0.0000
     atom:   17    charge:    2.0622    magn:    0.0001    constr:    0.0000
     atom:   18    charge:    3.1239    magn:   -0.0000    constr:    0.0000
     atom:   19    charge:    2.0877    magn:   -0.0000    constr:    0.0000
     atom:   20    charge:    2.0846    magn:    0.0000    constr:    0.0000
     atom:   21    charge:    2.0846    magn:    0.0000    constr:    0.0000
     atom:   22    charge:    3.1196    magn:    0.0000    constr:    0.0000
     atom:   23    charge:    2.0903    magn:   -0.0000    constr:    0.0000
     atom:   24    charge:    2.0789    magn:   -0.0000    constr:    0.0000
     atom:   25    charge:    2.0869    magn:   -0.0000    constr:    0.0000
     atom:   26    charge:    3.1149    magn:    0.0000    constr:    0.0000
     atom:   27    charge:    2.0818    magn:   -0.0000    constr:    0.0000
     atom:   28    charge:    2.0885    magn:   -0.0000    constr:    0.0000
     atom:   29    charge:    2.0876    magn:   -0.0000    constr:    0.0000
     atom:   30    charge:    3.1182    magn:    0.0000    constr:    0.0000
     atom:   31    charge:    2.0832    magn:   -0.0000    constr:    0.0000
     atom:   32    charge:    2.0862    magn:   -0.0000    constr:    0.0000
     atom:   33    charge:    2.0622    magn:    0.0001    constr:    0.0000
     atom:   34    charge:    3.1239    magn:   -0.0000    constr:    0.0000
     atom:   35    charge:    2.0878    magn:   -0.0000    constr:    0.0000
     atom:   36    charge:    2.0846    magn:    0.0000    constr:    0.0000
     atom:   37    charge:    2.0846    magn:    0.0000    constr:    0.0000
     atom:   38    charge:    3.1196    magn:    0.0000    constr:    0.0000
     atom:   39    charge:    2.0910    magn:   -0.0000    constr:    0.0000
     atom:   40    charge:    2.0790    magn:   -0.0000    constr:    0.0000
     atom:   41    charge:    2.0869    magn:   -0.0000    constr:    0.0000
     atom:   42    charge:    3.1146    magn:    0.0000    constr:    0.0000
     atom:   43    charge:    2.0817    magn:   -0.0000    constr:    0.0000
     atom:   44    charge:    2.0857    magn:   -0.0000    constr:    0.0000
     atom:   45    charge:    2.0874    magn:   -0.0000    constr:    0.0000
     atom:   46    charge:    3.1241    magn:    0.0000    constr:    0.0000
     atom:   47    charge:    2.0842    magn:   -0.0000    constr:    0.0000
     atom:   48    charge:    2.0720    magn:   -0.0000    constr:    0.0000
     atom:   49    charge:    2.0493    magn:   -0.0000    constr:    0.0000

     total cpu time spent up to now is     2785.1 secs

     total energy              =   -3004.17537621 Ry
     Harris-Foulkes estimate   =   -3004.17537623 Ry
     estimated scf accuracy    <       0.00000119 Ry

     total magnetization       =     0.00 Bohr mag/cell
     absolute magnetization    =     0.00 Bohr mag/cell

     iteration # 11     ecut=    40.42 Ry     beta=0.10
     Davidson diagonalization with overlap
     ethr =  3.05E-10,  avg # of iterations =  2.0

     negative rho (up, down):  1.431E-02 1.431E-02
 
     Magnetic moment per site:
     atom:    1    charge:    3.1251    magn:   -0.0000    constr:    0.0000
     atom:    2    charge:    2.0895    magn:    0.0000    constr:    0.0000
     atom:    3    charge:    3.1196    magn:   -0.0000    constr:    0.0000
     atom:    4    charge:    2.0871    magn:   -0.0000    constr:    0.0000
     atom:    5    charge:    3.1167    magn:    0.0000    constr:    0.0000
     atom:    6    charge:    2.0889    magn:   -0.0000    constr:    0.0000
     atom:    7    charge:    3.1221    magn:    0.0000    constr:    0.0000
     atom:    8    charge:    2.0874    magn:   -0.0000    constr:    0.0000
     atom:    9    charge:    3.1251    magn:   -0.0000    constr:    0.0000
     atom:   10    charge:    2.0894    magn:    0.0000    constr:    0.0000
     atom:   11    charge:    3.1196    magn:   -0.0000    constr:    0.0000
     atom:   12    charge:    2.0870    magn:   -0.0000    constr:    0.0000
     atom:   13    charge:    3.1147    magn:    0.0000    constr:    0.0000
     atom:   14    charge:    2.0876    magn:   -0.0000    constr:    0.0000
     atom:   15    charge:    3.1179    magn:    0.0000    constr:    0.0000
     atom:   16    charge:    2.1005    magn:   -0.0000    constr:    0.0000
     atom:   17    charge:    2.0622    magn:    0.0001    constr:    0.0000
     atom:   18    charge:    3.1239    magn:   -0.0000    constr:    0.0000
     atom:   19    charge:    2.0877    magn:    0.0000    constr:    0.0000
     atom:   20    charge:    2.0846    magn:    0.0000    constr:    0.0000
     atom:   21    charge:    2.0846    magn:    0.0000    constr:    0.0000
     atom:   22    charge:    3.1196    magn:    0.0000    constr:    0.0000
     atom:   23    charge:    2.0903    magn:   -0.0000    constr:    0.0000
     atom:   24    charge:    2.0789    magn:   -0.0000    constr:    0.0000
     atom:   25    charge:    2.0869    magn:   -0.0000    constr:    0.0000
     atom:   26    charge:    3.1149    magn:    0.0000    constr:    0.0000
     atom:   27    charge:    2.0818    magn:   -0.0000    constr:    0.0000
     atom:   28    charge:    2.0885    magn:   -0.0000    constr:    0.0000
     atom:   29    charge:    2.0876    magn:   -0.0000    constr:    0.0000
     atom:   30    charge:    3.1182    magn:    0.0000    constr:    0.0000
     atom:   31    charge:    2.0833    magn:   -0.0000    constr:    0.0000
     atom:   32    charge:    2.0862    magn:   -0.0000    constr:    0.0000
     atom:   33    charge:    2.0622    magn:    0.0001    constr:    0.0000
     atom:   34    charge:    3.1239    magn:   -0.0000    constr:    0.0000
     atom:   35    charge:    2.0878    magn:    0.0000    constr:    0.0000
     atom:   36    charge:    2.0846    magn:    0.0000    constr:    0.0000
     atom:   37    charge:    2.0846    magn:    0.0000    constr:    0.0000
     atom:   38    charge:    3.1196    magn:    0.0000    constr:    0.0000
     atom:   39    charge:    2.0910    magn:   -0.0000    constr:    0.0000
     atom:   40    charge:    2.0790    magn:   -0.0000    constr:    0.0000
     atom:   41    charge:    2.0869    magn:   -0.0000    constr:    0.0000
     atom:   42    charge:    3.1146    magn:    0.0000    constr:    0.0000
     atom:   43    charge:    2.0818    magn:   -0.0000    constr:    0.0000
     atom:   44    charge:    2.0857    magn:   -0.0000    constr:    0.0000
     atom:   45    charge:    2.0874    magn:   -0.0000    constr:    0.0000
     atom:   46    charge:    3.1241    magn:    0.0000    constr:    0.0000
     atom:   47    charge:    2.0843    magn:   -0.0000    constr:    0.0000
     atom:   48    charge:    2.0722    magn:   -0.0000    constr:    0.0000
     atom:   49    charge:    2.0492    magn:   -0.0000    constr:    0.0000

     total cpu time spent up to now is     2980.7 secs

     End of self-consistent calculation

 ------ SPIN UP ------------


          k = 0.0000 0.0000 0.0000 ( 34665 PWs)   bands (ev):

   -58.2467 -58.2117 -58.0790 -58.0399 -57.9157 -57.8673 -57.6978 -57.6624
   -57.6418 -57.6066 -57.5675 -57.5313 -57.3930 -57.2283 -56.6934 -56.6582
   -34.6820 -34.6565 -34.5289 -34.5005 -34.4616 -34.4474 -34.3937 -34.3532
   -34.3417 -34.2987 -34.2923 -34.2760 -34.2042 -34.1930 -34.1842 -34.1352
   -34.1324 -34.0976 -34.0896 -34.0763 -34.0521 -33.9832 -33.8933 -33.8758
   -33.8597 -33.8574 -33.8498 -33.8300 -33.8146 -33.8107 -33.8000 -33.7980
   -33.7659 -33.7556 -33.7427 -33.7261 -33.6977 -33.6967 -33.6318 -33.6088
   -33.4591 -33.3916 -33.1119 -33.0457 -33.0196 -32.9161 -32.8244 -32.7157
   -22.9088 -18.5940 -18.4075 -18.3065 -18.0759 -17.9299 -17.8805 -17.8203
   -17.6462 -17.6100 -17.5350 -17.5212 -17.4995 -17.4509 -17.4280 -17.4001
   -17.3583 -17.2904 -17.2514 -17.1550 -17.1191 -17.0052 -16.9992 -16.9640
   -16.8506 -16.7636 -16.7416 -16.7197 -16.5930 -16.5674 -15.6433 -15.2731
   -15.1879  -7.0387  -6.6440  -6.4386  -5.9654  -5.9219  -5.7811  -5.7177
    -5.4589  -5.4121  -5.3915  -5.0819  -5.0322  -4.9904  -4.9655  -4.8834
    -4.8557  -4.7824  -4.7222  -4.6556  -4.6461  -4.6331  -4.5709  -4.5612
    -4.5207  -4.5052  -4.4935  -4.4252  -4.3336  -4.2890  -4.2383  -4.1847
    -4.1584  -4.0987  -4.0836  -4.0569  -4.0476  -3.9586  -3.9506  -3.9344
    -3.8426  -3.6403  -3.5897  -3.5410  -3.4671  -3.4634  -3.4232  -3.2822
    -3.1865  -3.1725  -3.1547  -3.1374  -3.0011  -2.9660  -2.9315  -2.9153
    -2.8539  -2.8166  -2.7839  -2.7610  -2.7518  -2.6820  -2.6641  -2.5979
    -2.5299  -2.4781  -2.3974  -2.3252  -2.2030  -2.1300  -2.1292  -2.0632
    -2.0476  -1.9879  -1.9192  -1.8931  -1.8766  -1.8709  -1.8280  -1.7702
    -1.7453  -1.7040  -1.6613  -1.6218  -1.6049  -1.5478  -1.5160  -1.3630
    -1.2341  -1.1886  -1.1486  -1.1300  -1.0310  -0.7731  -0.6417  -0.6277
    -0.4168  -0.2909  -0.2770   1.0958   1.1223   1.2064   1.4022   1.4553
     1.4647   1.5486   1.6321   1.6740   1.7966   1.8841   1.8985   1.9551
     1.9713   1.9850   2.0160   2.0738   2.1028   2.1127   2.1558   2.1657
     2.2584   2.2753   2.3183   2.3224   2.5152   2.5282   2.5615   2.5736
     2.5812   2.6275   2.6408   2.6514   2.6817   2.7172   2.7713   2.8506
     2.8558   2.8872   2.9189   2.9820   3.0638   3.0674   3.1796   3.4130
     3.5266   3.5319   3.6344   3.6826   3.6976   3.8424   4.0467   4.0849
     4.1565   4.2223   4.5084   4.5255   4.6315   4.6903   4.7844   4.9229
     4.9465   5.0254   5.1416   5.1961   5.2136   5.2546   5.2784   5.2871
     5.3325   5.4099   5.5022   5.5563   5.5999   5.6523   5.6901   5.7933
     5.9049   5.9874   6.0373   6.3639   6.4190   6.4743   6.5606   6.7556
     7.1826   7.8185   7.9770   8.3241   8.5509   8.5999   8.8189   8.8561
     8.9372   9.1831   9.2037   9.3146   9.3403   9.5628   9.6643

          k = 0.0000 0.0280 0.0000 ( 34717 PWs)   bands (ev):

   -58.2444 -58.2141 -58.0766 -58.0422 -57.9140 -57.8691 -57.6955 -57.6648
   -57.6395 -57.6089 -57.5652 -57.5336 -57.3924 -57.2288 -56.6911 -56.6605
   -34.6567 -34.6290 -34.5269 -34.5023 -34.4413 -34.4365 -34.3870 -34.3597
   -34.3381 -34.3193 -34.3030 -34.2858 -34.2304 -34.1809 -34.1673 -34.1296
   -34.1098 -34.0986 -34.0839 -34.0783 -34.0634 -33.9762 -33.8873 -33.8736
   -33.8715 -33.8516 -33.8324 -33.8272 -33.8261 -33.8119 -33.8091 -33.8045
   -33.7718 -33.7616 -33.7605 -33.7284 -33.7233 -33.6963 -33.6303 -33.6088
   -33.4624 -33.4178 -33.0862 -33.0440 -33.0214 -32.9100 -32.8306 -32.7432
   -22.9035 -18.5354 -18.3530 -18.2638 -18.0232 -17.8824 -17.8752 -17.8208
   -17.6201 -17.6163 -17.5797 -17.5509 -17.5414 -17.4624 -17.4380 -17.3536
   -17.3374 -17.2889 -17.2607 -17.1857 -17.1781 -17.0227 -16.9864 -16.9342
   -16.8802 -16.7817 -16.7521 -16.7217 -16.6208 -16.6115 -15.6438 -15.2828
   -15.2111  -7.0058  -6.6321  -6.4194  -5.8774  -5.8381  -5.7065  -5.6418
    -5.4460  -5.3445  -5.3295  -5.0615  -5.0420  -4.9661  -4.9374  -4.8765
    -4.8336  -4.8012  -4.7118  -4.7057  -4.6881  -4.6495  -4.6389  -4.6073
    -4.5820  -4.5304  -4.4964  -4.4775  -4.4165  -4.3696  -4.2845  -4.2442
    -4.1891  -4.1733  -4.1477  -4.0565  -4.0038  -3.9270  -3.9184  -3.8274
    -3.7617  -3.6041  -3.5595  -3.4982  -3.4388  -3.3562  -3.3197  -3.1774
    -3.1729  -3.1023  -3.0744  -3.0526  -3.0136  -2.9903  -2.9764  -2.8857
    -2.8502  -2.8420  -2.8230  -2.8055  -2.7190  -2.6866  -2.6004  -2.5675
    -2.4865  -2.4309  -2.3751  -2.3605  -2.3155  -2.2358  -2.1408  -2.1031
    -2.1007  -2.0527  -2.0353  -1.9944  -1.9469  -1.8622  -1.8464  -1.8403
    -1.7717  -1.7432  -1.7232  -1.6586  -1.6099  -1.5719  -1.4768  -1.3826
    -1.3393  -1.2993  -1.2469  -1.1750  -1.0600  -0.8186  -0.6884  -0.6279
    -0.4026  -0.3371  -0.3107   1.1777   1.2280   1.2498   1.4336   1.4598
     1.5506   1.5719   1.6610   1.7123   1.7812   1.8501   1.8792   1.9133
     1.9530   2.0061   2.0109   2.0583   2.0798   2.1170   2.1327   2.1898
     2.2619   2.3076   2.3920   2.4346   2.4428   2.4842   2.5116   2.5413
     2.5675   2.5833   2.6408   2.6792   2.7406   2.7713   2.8141   2.8555
     2.8856   2.9914   3.0039   3.0391   3.0939   3.1091   3.1459   3.3604
     3.4549   3.5732   3.6218   3.6444   3.7361   3.7738   3.9904   4.1454
     4.1792   4.3169   4.5038   4.5806   4.7076   4.7176   4.7889   4.9286
     4.9645   5.0844   5.1062   5.1440   5.1988   5.2168   5.2451   5.2642
     5.3112   5.4019   5.5016   5.5280   5.5862   5.6045   5.6236   5.6904
     5.9526   6.0250   6.0562   6.1953   6.4038   6.4123   6.6301   6.6887
     7.2989   7.6181   7.9788   8.0841   8.2265   8.7069   8.7174   8.8329
     8.9470   9.0212   9.2910   9.3375   9.4464   9.4914   9.7516

          k = 0.0000 0.0560 0.0000 ( 34721 PWs)   bands (ev):

   -58.2380 -58.2205 -58.0704 -58.0484 -57.9101 -57.8730 -57.6890 -57.6713
   -57.6331 -57.6153 -57.5592 -57.5397 -57.3914 -57.2299 -56.6847 -56.6670
   -34.5869 -34.5542 -34.5216 -34.5073 -34.4242 -34.3923 -34.3771 -34.3720
   -34.3692 -34.3396 -34.3214 -34.3123 -34.2762 -34.1822 -34.1391 -34.1227
   -34.1147 -34.0928 -34.0886 -34.0399 -33.9961 -33.9567 -33.9004 -33.8977
   -33.8730 -33.8662 -33.8563 -33.8441 -33.8225 -33.8222 -33.8089 -33.8058
   -33.7885 -33.7737 -33.7704 -33.7557 -33.7288 -33.6956 -33.6291 -33.6081
   -33.4932 -33.4600 -33.0392 -33.0262 -33.0154 -32.8935 -32.8475 -32.8174
   -22.8930 -18.3760 -18.2121 -18.1427 -17.9304 -17.8788 -17.8272 -17.7579
   -17.7484 -17.7137 -17.6079 -17.5873 -17.4969 -17.4785 -17.4491 -17.4124
   -17.2948 -17.2694 -17.2641 -17.2202 -17.1805 -17.0869 -16.9691 -16.9609
   -16.8696 -16.8139 -16.7754 -16.7499 -16.7251 -16.6662 -15.6449 -15.3002
   -15.2613  -6.9387  -6.6052  -6.3892  -5.6341  -5.6059  -5.5302  -5.4963
    -5.4279  -5.1376  -5.1302  -5.0733  -5.0263  -4.9699  -4.9456  -4.9349
    -4.9244  -4.8838  -4.8584  -4.8156  -4.7681  -4.7611  -4.7565  -4.6621
    -4.6338  -4.6127  -4.5005  -4.4845  -4.4467  -4.3950  -4.3595  -4.2984
    -4.1566  -4.1497  -4.0653  -3.9832  -3.9438  -3.8502  -3.8240  -3.7369
    -3.6650  -3.6083  -3.5032  -3.4427  -3.4192  -3.3853  -3.3345  -3.2405
    -3.1742  -3.0944  -3.0650  -3.0436  -2.9290  -2.8925  -2.8729  -2.8522
    -2.7721  -2.7610  -2.7367  -2.7046  -2.6941  -2.6568  -2.6089  -2.5801
    -2.4924  -2.4814  -2.4656  -2.4032  -2.3909  -2.3411  -2.2844  -2.1928
    -2.1761  -2.1209  -2.1000  -2.0639  -2.0016  -1.9818  -1.9317  -1.9203
    -1.8669  -1.8147  -1.7834  -1.7024  -1.6973  -1.6357  -1.6007  -1.5344
    -1.4438  -1.3468  -1.2871  -1.2082  -1.1770  -1.1228  -0.8653  -0.4474
    -0.3984  -0.3610  -0.3597   1.3147   1.3384   1.4778   1.5167   1.5445
     1.5617   1.6479   1.6961   1.7477   1.7741   1.8133   1.8302   1.8500
     1.9100   1.9548   1.9592   2.0485   2.1444   2.2044   2.2325   2.2428
     2.2564   2.2827   2.3517   2.3818   2.3938   2.4251   2.4932   2.5316
     2.5827   2.6382   2.6641   2.6900   2.7853   2.7944   2.8807   2.9398
     2.9845   3.0085   3.0635   3.1639   3.2149   3.2363   3.2748   3.3180
     3.3309   3.4952   3.5842   3.5950   3.6408   3.8246   3.8305   4.2189
     4.2855   4.4286   4.5802   4.6325   4.7857   4.8320   4.8591   4.9157
     4.9307   4.9906   5.0284   5.1780   5.1794   5.1940   5.2048   5.2823
     5.2990   5.3299   5.3770   5.4066   5.4695   5.5887   5.6131   5.7267
     5.8864   6.0102   6.0236   6.2420   6.2599   6.4154   6.5710   6.9053
     6.9495   7.2858   7.6606   7.8083   8.2977   8.4008   8.5900   8.9538
     9.0332   9.0944   9.2977   9.3774   9.6933   9.7564   9.8227

          k = 0.0000-0.0840 0.0000 ( 34678 PWs)   bands (ev):

   -58.2293 -58.2293 -58.0653 -58.0536 -57.9078 -57.8754 -57.6806 -57.6797
   -57.6256 -57.6229 -57.5536 -57.5453 -57.3909 -57.2304 -56.6758 -56.6758
   -34.5145 -34.5144 -34.4903 -34.4903 -34.4760 -34.4132 -34.4007 -34.4007
   -34.3479 -34.3416 -34.3146 -34.3057 -34.2664 -34.2469 -34.1494 -34.1208
   -34.1177 -34.0934 -33.9990 -33.9984 -33.9440 -33.9417 -33.9289 -33.9280
   -33.9066 -33.8955 -33.8637 -33.8627 -33.8464 -33.8442 -33.8075 -33.8048
   -33.7939 -33.7870 -33.7528 -33.7453 -33.7012 -33.6981 -33.6336 -33.6065
   -33.5408 -33.4649 -33.0327 -33.0327 -32.9174 -32.9173 -32.8705 -32.8705
   -22.8878 -18.2138 -18.1075 -18.0455 -17.9696 -17.9433 -17.9056 -17.7396
   -17.7238 -17.6314 -17.6102 -17.6077 -17.5752 -17.5695 -17.3834 -17.3833
   -17.3738 -17.3699 -17.1782 -17.1738 -17.0739 -17.0681 -17.0659 -17.0363
   -16.8520 -16.8490 -16.7746 -16.7722 -16.7357 -16.7250 -15.6455 -15.2981
   -15.2981  -6.9052  -6.5889  -6.3787  -5.5588  -5.3081  -5.2985  -5.2767
    -5.2763  -5.2286  -5.2209  -5.1788  -5.1757  -5.0727  -4.9607  -4.9462
    -4.9356  -4.9102  -4.8799  -4.8707  -4.8501  -4.8383  -4.7752  -4.6513
    -4.6264  -4.5864  -4.5379  -4.4801  -4.4618  -4.3929  -4.3742  -4.2816
    -4.1167  -4.0821  -4.0784  -3.9110  -3.9089  -3.8547  -3.7661  -3.6235
    -3.5667  -3.5486  -3.4328  -3.4027  -3.3872  -3.3210  -3.2909  -3.2886
    -3.2340  -3.1818  -3.1574  -3.1424  -3.0794  -3.0554  -3.0017  -2.9611
    -2.8871  -2.7976  -2.7247  -2.6900  -2.6081  -2.5392  -2.5224  -2.4432
    -2.4052  -2.3835  -2.3590  -2.3478  -2.3251  -2.2926  -2.2839  -2.2518
    -2.2492  -2.2019  -2.1312  -2.0589  -2.0572  -1.9913  -1.9879  -1.9836
    -1.9747  -1.8797  -1.8437  -1.7838  -1.6867  -1.6420  -1.6278  -1.5887
    -1.5395  -1.5211  -1.4345  -1.2045  -1.1804  -1.0461  -1.0415  -0.3976
    -0.3974  -0.3540  -0.3537   1.4307   1.4576   1.4782   1.5189   1.5732
     1.6486   1.6736   1.6738   1.7511   1.7588   1.8004   1.8005   1.8423
     1.9200   1.9918   1.9972   2.0473   2.0715   2.1606   2.1680   2.2061
     2.2919   2.3073   2.3676   2.3868   2.4330   2.4657   2.4684   2.5182
     2.5658   2.6008   2.6566   2.7876   2.8366   2.8831   2.8849   2.8872
     2.9073   3.1161   3.1334   3.2077   3.2242   3.2782   3.3098   3.3596
     3.3681   3.5032   3.5175   3.5751   3.5757   3.6691   3.8751   4.2356
     4.3675   4.4198   4.6308   4.6814   4.8052   4.8262   4.8826   4.9278
     4.9623   4.9623   5.0473   5.0723   5.0857   5.1914   5.2265   5.2783
     5.2789   5.3018   5.3948   5.4592   5.4839   5.5038   5.6059   5.6201
     5.9053   6.0122   6.0703   6.1092   6.4535   6.5243   6.5249   6.6715
     6.9686   7.0562   7.4786   7.5893   8.1732   8.2865   8.9365   9.0368
     9.2371   9.3296   9.4706   9.5570   9.5578   9.7209   9.7647

          k = 0.0253 0.0000 0.0000 ( 34707 PWs)   bands (ev):

   -58.2467 -58.2117 -58.0790 -58.0399 -57.9157 -57.8673 -57.6978 -57.6624
   -57.6419 -57.6066 -57.5675 -57.5313 -57.3930 -57.2283 -56.6934 -56.6582
   -34.6823 -34.6572 -34.5289 -34.5005 -34.4617 -34.4468 -34.3924 -34.3533
   -34.3415 -34.2988 -34.2924 -34.2761 -34.2042 -34.1946 -34.1842 -34.1354
   -34.1307 -34.1107 -34.0919 -34.0589 -34.0521 -33.9767 -33.8930 -33.8761
   -33.8594 -33.8572 -33.8498 -33.8339 -33.8185 -33.8118 -33.7999 -33.7981
   -33.7658 -33.7555 -33.7430 -33.7261 -33.6978 -33.6976 -33.6318 -33.6088
   -33.4591 -33.3917 -33.1118 -33.0467 -33.0191 -32.9161 -32.8244 -32.7158
   -22.9067 -18.5659 -18.3699 -18.2839 -18.0369 -17.9336 -17.8802 -17.8318
   -17.6880 -17.6659 -17.5753 -17.5339 -17.4992 -17.4555 -17.4514 -17.3885
   -17.3555 -17.3370 -17.2391 -17.1437 -17.0428 -17.0364 -17.0060 -16.9343
   -16.8940 -16.7526 -16.7410 -16.7212 -16.5919 -16.5674 -15.6357 -15.2719
   -15.1878  -6.9653  -6.6273  -6.4679  -5.9137  -5.8124  -5.6710  -5.6210
    -5.4481  -5.4014  -5.3394  -5.2136  -5.0765  -5.0292  -4.9862  -4.9553
    -4.8756  -4.8013  -4.7457  -4.6488  -4.6228  -4.5991  -4.5535  -4.4991
    -4.4894  -4.4618  -4.4088  -4.3810  -4.2964  -4.2815  -4.2634  -4.1639
    -4.1471  -4.1413  -4.0826  -4.0712  -3.9973  -3.9144  -3.9090  -3.8294
    -3.7202  -3.6430  -3.6226  -3.5984  -3.5243  -3.4425  -3.4219  -3.3848
    -3.2663  -3.2031  -3.1366  -3.1190  -3.0841  -3.0512  -2.9528  -2.9132
    -2.9108  -2.8236  -2.8058  -2.7544  -2.7354  -2.7212  -2.6371  -2.6233
    -2.5484  -2.4586  -2.3516  -2.2604  -2.2273  -2.1845  -2.1677  -2.1109
    -2.0892  -2.0418  -1.9879  -1.9274  -1.9212  -1.8718  -1.8677  -1.8016
    -1.7481  -1.7172  -1.6907  -1.6427  -1.5836  -1.5725  -1.4719  -1.4069
    -1.3825  -1.2881  -1.2109  -1.1077  -1.0459  -0.7677  -0.7062  -0.6189
    -0.4308  -0.3332  -0.3325   1.1100   1.1777   1.3093   1.4544   1.4692
     1.5420   1.5699   1.6876   1.7662   1.8051   1.8278   1.8675   1.9186
     1.9343   1.9810   1.9954   2.0355   2.0791   2.0885   2.1201   2.1935
     2.2046   2.2802   2.3073   2.3509   2.5269   2.5703   2.5750   2.5816
     2.6231   2.6321   2.6576   2.7257   2.7366   2.7948   2.8401   2.8704
     2.9033   2.9467   2.9901   3.0248   3.0478   3.1098   3.1731   3.3575
     3.4422   3.5737   3.6286   3.6530   3.7588   3.8278   3.9968   4.0716
     4.1900   4.2469   4.3429   4.4227   4.5197   4.5331   4.5733   4.7458
     5.0727   5.0962   5.1659   5.2611   5.2771   5.2909   5.3178   5.4131
     5.4932   5.5617   5.5939   5.6012   5.6402   5.6758   5.7230   5.9029
     5.9401   6.0264   6.0522   6.3646   6.3723   6.4783   6.6150   6.7555
     7.2445   7.7716   7.8466   8.0581   8.1181   8.3745   8.4147   8.9037
     8.9395   9.0874   9.1844   9.2643   9.5110   9.7742  10.0215

          k = 0.0253 0.0280 0.0000 ( 34687 PWs)   bands (ev):

   -58.2444 -58.2141 -58.0766 -58.0422 -57.9140 -57.8691 -57.6954 -57.6648
   -57.6395 -57.6089 -57.5652 -57.5336 -57.3924 -57.2288 -56.6911 -56.6605
   -34.6570 -34.6296 -34.5269 -34.5023 -34.4406 -34.4366 -34.3858 -34.3596
   -34.3379 -34.3193 -34.3030 -34.2857 -34.2305 -34.1809 -34.1689 -34.1277
   -34.1101 -34.1020 -34.0944 -34.0783 -34.0477 -33.9699 -33.8871 -33.8739
   -33.8697 -33.8515 -33.8322 -33.8303 -33.8293 -33.8145 -33.8096 -33.8045
   -33.7719 -33.7617 -33.7605 -33.7284 -33.7233 -33.6970 -33.6304 -33.6088
   -33.4624 -33.4178 -33.0861 -33.0449 -33.0209 -32.9101 -32.8306 -32.7432
   -22.9015 -18.5087 -18.3169 -18.2400 -17.9855 -17.8874 -17.8749 -17.8272
   -17.6721 -17.6419 -17.6242 -17.5785 -17.5220 -17.4629 -17.4216 -17.3789
   -17.3534 -17.3234 -17.2581 -17.1910 -17.0890 -17.0650 -16.9823 -16.9345
   -16.9014 -16.7714 -16.7525 -16.7216 -16.6210 -16.6105 -15.6364 -15.2818
   -15.2111  -6.9363  -6.6136  -6.4382  -5.8304  -5.7277  -5.5963  -5.5429
    -5.3857  -5.3314  -5.3249  -5.1593  -5.0761  -4.9937  -4.9566  -4.9014
    -4.8210  -4.7806  -4.7506  -4.7048  -4.6782  -4.6478  -4.6301  -4.5767
    -4.5343  -4.5230  -4.4570  -4.4051  -4.3906  -4.3639  -4.2828  -4.2289
    -4.1814  -4.1225  -4.1103  -4.0884  -3.9728  -3.9174  -3.8566  -3.8000
    -3.7400  -3.6313  -3.5634  -3.5244  -3.4795  -3.4033  -3.3303  -3.2274
    -3.2087  -3.1572  -3.1115  -3.0632  -3.0219  -3.0043  -2.9993  -2.9352
    -2.9124  -2.8587  -2.8198  -2.7728  -2.7402  -2.7128  -2.6391  -2.5626
    -2.5172  -2.4326  -2.4260  -2.3534  -2.3066  -2.2486  -2.1849  -2.1544
    -2.1484  -2.1146  -2.0719  -2.0245  -1.9618  -1.9375  -1.9137  -1.8554
    -1.8327  -1.7202  -1.6864  -1.6596  -1.6356  -1.5727  -1.4541  -1.4331
    -1.3481  -1.3099  -1.3060  -1.2326  -1.0556  -0.8314  -0.7347  -0.6221
    -0.3992  -0.3606  -0.3505   1.1708   1.2978   1.3342   1.4683   1.4961
     1.5486   1.6982   1.7075   1.7837   1.8118   1.8312   1.8704   1.8980
     1.9234   1.9612   1.9855   2.0236   2.0773   2.1168   2.1539   2.1776
     2.2043   2.3006   2.4076   2.4474   2.4604   2.4697   2.5248   2.5607
     2.5776   2.6521   2.6839   2.7521   2.8096   2.8198   2.8589   2.8987
     2.9095   2.9820   3.0233   3.0981   3.1136   3.1223   3.1794   3.3115
     3.4001   3.5918   3.6193   3.6289   3.7577   3.7751   3.9475   4.1003
     4.2326   4.3297   4.3904   4.4614   4.5253   4.5766   4.5986   4.7787
     4.9741   5.1048   5.1452   5.2021   5.2466   5.2644   5.3356   5.3420
     5.4872   5.5238   5.5503   5.5603   5.6173   5.6254   5.6765   5.8830
     5.9665   6.0450   6.1077   6.2040   6.3909   6.4089   6.6483   6.7214
     7.3564   7.6494   7.8639   7.9880   8.1863   8.2396   8.3623   8.5612
     8.9095   9.0392   9.2255   9.3333   9.4067   9.7783   9.8162

          k = 0.0253 0.0560 0.0000 ( 34699 PWs)   bands (ev):

   -58.2380 -58.2205 -58.0704 -58.0484 -57.9101 -57.8730 -57.6890 -57.6713
   -57.6332 -57.6154 -57.5592 -57.5397 -57.3914 -57.2299 -56.6847 -56.6670
[...]
    -4.7193  -4.7052  -4.7005  -4.6531  -4.6434  -4.5756  -4.5750  -4.5737
    -4.5329  -4.5184  -4.4912  -4.4705  -4.4392  -4.4287  -4.4204  -4.3430
    -4.2528  -4.1768  -4.0579  -4.0422  -4.0282  -3.9708  -3.9443  -3.9309
    -3.8919  -3.8911  -3.6764  -3.6718  -3.5875  -3.5223  -3.4219  -3.4080
    -3.3725  -3.3440  -3.3031  -3.2189  -3.1767  -3.1080  -3.0889  -3.0608
    -3.0282  -2.9525  -2.9407  -2.9214  -2.9186  -2.9017  -2.8630  -2.8276
    -2.7935  -2.6898  -2.6879  -2.5908  -2.5828  -2.5657  -2.4846  -2.4646
    -2.3854  -2.2896  -2.2089  -2.0710  -2.0617  -1.8923  -1.8878  -1.8078
    -1.7637  -1.7375  -1.7345  -1.6768  -1.6039  -1.5715  -1.5525  -1.4899
    -1.4821  -1.3506  -1.1693  -1.1657  -1.1602  -1.1163  -0.9770  -0.4715
    -0.4714  -0.3294  -0.3289   1.5146   1.5483   1.5766   1.6106   1.6174
     1.6545   1.6573   1.7376   1.8548   1.8848   1.9414   1.9543   2.0129
     2.0246   2.0612   2.0807   2.1268   2.1357   2.1416   2.2329   2.2969
     2.3851   2.3965   2.4183   2.4555   2.4587   2.6191   2.6452   2.7121
     2.7157   2.8165   2.8211   2.8661   2.8754   2.9196   2.9335   2.9522
     2.9573   3.0789   3.0899   3.2472   3.2563   3.3418   3.4039   3.4090
     3.4091   3.5282   3.5398   3.5612   3.5614   3.8073   3.8432   4.0534
     4.1684   4.2353   4.2409   4.2411   4.3134   4.3314   4.3479   4.3513
     4.6828   4.6852   4.7988   4.8311   5.2139   5.2304   5.3672   5.3701
     5.4598   5.5916   5.7504   5.7532   5.7763   5.7976   6.0225   6.0815
     6.1262   6.1263   6.3000   6.3007   6.3988   6.4008   6.7521   7.2615
     7.4871   7.5597   7.6882   7.7231   7.8769   7.8976   7.9888   8.0837
     8.4184   8.4436   8.5629   8.6901   9.1753   9.2114   9.3193

          k =-0.0253 0.0280 0.0000 ( 34687 PWs)   bands (ev):

   -58.2445 -58.2142 -58.0765 -58.0422 -57.9140 -57.8690 -57.6954 -57.6648
   -57.6395 -57.6089 -57.5652 -57.5335 -57.3924 -57.2288 -56.6913 -56.6607
   -34.6570 -34.6296 -34.5271 -34.5024 -34.4407 -34.4366 -34.3857 -34.3597
   -34.3378 -34.3194 -34.3029 -34.2857 -34.2304 -34.1809 -34.1688 -34.1276
   -34.1101 -34.1019 -34.0943 -34.0782 -34.0476 -33.9699 -33.8871 -33.8739
   -33.8697 -33.8516 -33.8321 -33.8303 -33.8292 -33.8145 -33.8096 -33.8045
   -33.7718 -33.7616 -33.7605 -33.7283 -33.7232 -33.6970 -33.6304 -33.6088
   -33.4624 -33.4178 -33.0863 -33.0451 -33.0211 -32.9103 -32.8308 -32.7434
   -22.9015 -18.5088 -18.3169 -18.2401 -17.9855 -17.8880 -17.8742 -17.8272
   -17.6720 -17.6421 -17.6247 -17.5784 -17.5220 -17.4630 -17.4219 -17.3789
   -17.3534 -17.3231 -17.2580 -17.1904 -17.0890 -17.0652 -16.9824 -16.9345
   -16.9014 -16.7714 -16.7525 -16.7215 -16.6209 -16.6106 -15.6365 -15.2814
   -15.2107  -6.9365  -6.6137  -6.4393  -5.8300  -5.7277  -5.5962  -5.5429
    -5.3833  -5.3309  -5.3252  -5.1589  -5.0752  -4.9917  -4.9561  -4.9014
    -4.8209  -4.7790  -4.7524  -4.7083  -4.6793  -4.6474  -4.6337  -4.5775
    -4.5351  -4.5230  -4.4560  -4.4051  -4.3910  -4.3650  -4.2829  -4.2281
    -4.1817  -4.1214  -4.1104  -4.0850  -3.9754  -3.9161  -3.8599  -3.7984
    -3.7395  -3.6314  -3.5631  -3.5252  -3.4785  -3.4053  -3.3287  -3.2267
    -3.2090  -3.1561  -3.1123  -3.0620  -3.0209  -3.0035  -2.9959  -2.9354
    -2.9103  -2.8587  -2.8216  -2.7709  -2.7427  -2.7120  -2.6386  -2.5644
    -2.5190  -2.4342  -2.4267  -2.3535  -2.3093  -2.2487  -2.1867  -2.1556
    -2.1477  -2.1138  -2.0725  -2.0247  -1.9597  -1.9342  -1.9137  -1.8565
    -1.8286  -1.7244  -1.6840  -1.6595  -1.6395  -1.5741  -1.4561  -1.4318
    -1.3461  -1.3095  -1.3067  -1.2298  -1.0559  -0.8313  -0.7346  -0.6218
    -0.3990  -0.3602  -0.3501   1.1706   1.2977   1.3338   1.4681   1.4963
     1.5484   1.6991   1.7110   1.7850   1.8064   1.8275   1.8711   1.8989
     1.9283   1.9608   1.9854   2.0233   2.0750   2.1191   2.1527   2.1759
     2.2056   2.3038   2.4081   2.4466   2.4572   2.4710   2.5252   2.5601
     2.5762   2.6514   2.6862   2.7478   2.8101   2.8204   2.8599   2.8989
     2.9106   2.9825   3.0232   3.0979   3.1133   3.1218   3.1797   3.3111
     3.4009   3.5919   3.6181   3.6290   3.7576   3.7760   3.9474   4.0991
     4.2342   4.3297   4.3875   4.4650   4.5245   4.5752   4.5989   4.7780
     4.9766   5.0942   5.1522   5.2021   5.2468   5.2608   5.3362   5.3439
     5.4881   5.5272   5.5459   5.5623   5.6179   5.6256   5.6768   5.8829
     5.9659   6.0459   6.1074   6.2043   6.3908   6.4088   6.6483   6.7216
     7.3565   7.6494   7.8640   7.9882   8.1863   8.2395   8.3626   8.5611
     8.9095   9.0392   9.2254   9.3338   9.4065   9.7787   9.8159

          k =-0.0253 0.0560 0.0000 ( 34699 PWs)   bands (ev):

   -58.2381 -58.2206 -58.0704 -58.0484 -57.9101 -57.8730 -57.6890 -57.6713
   -57.6331 -57.6153 -57.5591 -57.5396 -57.3914 -57.2299 -56.6849 -56.6672
   -34.5872 -34.5547 -34.5217 -34.5075 -34.4238 -34.3924 -34.3770 -34.3720
   -34.3683 -34.3395 -34.3212 -34.3121 -34.2761 -34.1822 -34.1391 -34.1215
   -34.1149 -34.0944 -34.0912 -34.0403 -33.9912 -33.9516 -33.9013 -33.8938
   -33.8725 -33.8666 -33.8563 -33.8444 -33.8246 -33.8222 -33.8126 -33.8077
   -33.7887 -33.7744 -33.7704 -33.7556 -33.7288 -33.6960 -33.6291 -33.6083
   -33.4931 -33.4599 -33.0400 -33.0262 -33.0155 -32.8937 -32.8478 -32.8176
   -22.8912 -18.3531 -18.1818 -18.1140 -17.9330 -17.8482 -17.8231 -17.7649
   -17.7465 -17.7155 -17.6373 -17.5949 -17.5487 -17.4551 -17.4313 -17.4203
   -17.3262 -17.3184 -17.2531 -17.2109 -17.1623 -17.1238 -17.0057 -16.9611
   -16.8531 -16.8083 -16.7750 -16.7497 -16.7249 -16.6656 -15.6381 -15.2992
   -15.2611  -6.8803  -6.5815  -6.3911  -5.6020  -5.4939  -5.4384  -5.3875
    -5.3300  -5.1345  -5.1282  -5.0851  -5.0344  -4.9773  -4.9468  -4.9176
    -4.8808  -4.8412  -4.8248  -4.7714  -4.7661  -4.7160  -4.7005  -4.6375
    -4.6329  -4.5931  -4.5045  -4.4901  -4.4419  -4.3763  -4.3646  -4.2947
    -4.1864  -4.1631  -4.0485  -4.0112  -3.9096  -3.8755  -3.8430  -3.7631
    -3.6737  -3.6296  -3.5501  -3.4586  -3.4173  -3.3971  -3.3416  -3.2462
    -3.2056  -3.1357  -3.0914  -3.0633  -2.9864  -2.9749  -2.9211  -2.9046
    -2.8885  -2.8516  -2.7816  -2.7216  -2.7023  -2.6951  -2.6514  -2.6003
    -2.5346  -2.5125  -2.4736  -2.4501  -2.3841  -2.3750  -2.2907  -2.2656
    -2.2021  -2.1911  -2.1608  -2.1199  -2.0335  -1.9989  -1.9587  -1.9228
    -1.8503  -1.8119  -1.7727  -1.6894  -1.6770  -1.6099  -1.5890  -1.5212
    -1.4116  -1.3650  -1.2990  -1.2288  -1.1896  -1.0852  -0.8618  -0.4465
    -0.4110  -0.3832  -0.3563   1.3108   1.3917   1.5010   1.5381   1.5847
     1.6286   1.6706   1.7296   1.7511   1.8208   1.8376   1.8687   1.9120
     1.9609   1.9726   1.9900   2.0884   2.1194   2.1689   2.2171   2.2335
     2.2553   2.2717   2.3546   2.3731   2.4037   2.4487   2.4742   2.5245
     2.6563   2.6739   2.7242   2.7714   2.7953   2.8286   2.8824   2.9318
     2.9874   3.0258   3.0601   3.1806   3.2176   3.2389   3.2950   3.3213
     3.3440   3.4639   3.5651   3.6018   3.6766   3.7951   3.8528   4.1726
     4.3399   4.4112   4.4561   4.5880   4.6095   4.6554   4.6945   4.7804
     4.8333   4.9366   5.0138   5.1005   5.1701   5.2521   5.2753   5.3113
     5.3631   5.4452   5.4882   5.5079   5.5834   5.6279   5.7561   5.8382
     5.9272   6.0408   6.0546   6.2540   6.2763   6.4564   6.5781   6.9263
     7.0147   7.3534   7.7143   7.8883   8.2128   8.3653   8.4241   8.5960
     8.7412   8.9113   9.0407   9.3689   9.5128   9.5866   9.7570

          k =-0.0506 0.0280 0.0000 ( 34685 PWs)   bands (ev):

   -58.2445 -58.2142 -58.0765 -58.0422 -57.9139 -57.8690 -57.6953 -57.6648
   -57.6396 -57.6089 -57.5652 -57.5335 -57.3924 -57.2288 -56.6913 -56.6607
   -34.6577 -34.6309 -34.5270 -34.5024 -34.4393 -34.4368 -34.3833 -34.3597
   -34.3373 -34.3195 -34.3029 -34.2857 -34.2306 -34.1809 -34.1719 -34.1280
   -34.1107 -34.1092 -34.0965 -34.0782 -34.0305 -33.9552 -33.8865 -33.8745
   -33.8663 -33.8515 -33.8415 -33.8368 -33.8318 -33.8178 -33.8090 -33.8045
   -33.7721 -33.7616 -33.7607 -33.7283 -33.7231 -33.6985 -33.6305 -33.6089
   -33.4624 -33.4178 -33.0862 -33.0469 -33.0202 -32.9103 -32.8308 -32.7434
   -22.8974 -18.4491 -18.2347 -18.1818 -17.9288 -17.8872 -17.8589 -17.8334
   -17.7583 -17.7034 -17.6582 -17.6173 -17.5276 -17.4862 -17.4654 -17.4349
   -17.3990 -17.2897 -17.2842 -17.1552 -17.1167 -17.0171 -16.9978 -16.9693
   -16.8759 -16.7604 -16.7535 -16.7206 -16.6214 -16.6092 -15.6219 -15.2794
   -15.2107  -6.8065  -6.5488  -6.4756  -5.8022  -5.4391  -5.3992  -5.3356
    -5.2810  -5.2610  -5.2318  -5.2088  -5.1372  -5.0633  -4.9946  -4.9399
    -4.8943  -4.7602  -4.7115  -4.6665  -4.6185  -4.5908  -4.5666  -4.5581
    -4.5401  -4.4850  -4.4282  -4.3856  -4.3396  -4.3096  -4.2632  -4.2521
    -4.1824  -4.1608  -4.0371  -3.9954  -3.9191  -3.8572  -3.8239  -3.7858
    -3.7344  -3.6836  -3.5767  -3.5450  -3.4957  -3.4440  -3.3673  -3.3110
    -3.2995  -3.2465  -3.2254  -3.1523  -3.0893  -3.0767  -3.0268  -2.9786
    -2.9498  -2.9172  -2.8944  -2.8463  -2.8046  -2.7656  -2.6749  -2.5990
    -2.5559  -2.5316  -2.4828  -2.4261  -2.3827  -2.3567  -2.3123  -2.2805
    -2.1943  -2.1379  -2.0934  -2.0668  -2.0478  -1.9856  -1.9606  -1.8894
    -1.8346  -1.7996  -1.6961  -1.6622  -1.6304  -1.5328  -1.4598  -1.4270
    -1.3717  -1.3195  -1.2664  -1.2376  -1.0662  -0.8730  -0.8249  -0.6091
    -0.4298  -0.3993  -0.3857   1.1547   1.3572   1.4098   1.5114   1.5204
     1.5512   1.6120   1.6723   1.7561   1.7825   1.8380   1.9165   1.9452
     1.9827   2.0075   2.0316   2.0493   2.0831   2.1420   2.1944   2.2350
     2.3104   2.3566   2.4044   2.4789   2.4891   2.5497   2.5616   2.5865
     2.6239   2.6910   2.7423   2.7898   2.8322   2.8931   2.9117   2.9376
     2.9911   3.0689   3.0827   3.1191   3.1304   3.2014   3.2642   3.2919
     3.3319   3.5066   3.6200   3.7068   3.7355   3.8085   3.8763   3.9428
     4.1221   4.2132   4.2366   4.2599   4.4077   4.4808   4.5774   4.8158
     4.9230   5.0329   5.0659   5.2114   5.2653   5.2790   5.3117   5.4560
     5.4988   5.5551   5.5868   5.6874   5.8690   5.9091   5.9471   5.9915
     6.0903   6.1296   6.2699   6.2746   6.4187   6.4483   6.6213   6.8806
     7.1508   7.3398   7.6755   7.7118   7.7533   8.3110   8.3979   8.5638
     8.6599   9.0901   9.1712   9.4083   9.5056   9.6319   9.7565

          k =-0.0506 0.0560 0.0000 ( 34596 PWs)   bands (ev):

   -58.2381 -58.2206 -58.0704 -58.0484 -57.9100 -57.8730 -57.6889 -57.6712
   -57.6332 -57.6154 -57.5592 -57.5396 -57.3914 -57.2299 -56.6849 -56.6672
   -34.5878 -34.5558 -34.5217 -34.5074 -34.4226 -34.3926 -34.3766 -34.3720
   -34.3668 -34.3394 -34.3209 -34.3116 -34.2759 -34.1821 -34.1392 -34.1204
   -34.1152 -34.0974 -34.0945 -34.0411 -33.9824 -33.9391 -33.9049 -33.8856
   -33.8713 -33.8678 -33.8562 -33.8443 -33.8288 -33.8223 -33.8213 -33.8115
   -33.7889 -33.7758 -33.7704 -33.7556 -33.7288 -33.6969 -33.6293 -33.6086
   -33.4930 -33.4598 -33.0412 -33.0257 -33.0153 -32.8937 -32.8477 -32.8175
   -22.8874 -18.3017 -18.1146 -18.0412 -17.9350 -17.8170 -17.8077 -17.7690
   -17.7330 -17.7193 -17.6873 -17.6072 -17.5947 -17.4917 -17.4349 -17.4088
   -17.4070 -17.3468 -17.2531 -17.2256 -17.1733 -17.1335 -17.0920 -16.9458
   -16.8306 -16.8021 -16.7741 -16.7489 -16.7247 -16.6647 -15.6246 -15.2979
   -15.2614  -6.7770  -6.5000  -6.3920  -5.5843  -5.2600  -5.2083  -5.1754
    -5.1231  -5.1024  -5.0763  -5.0406  -5.0219  -4.9544  -4.8876  -4.8609
    -4.8531  -4.7787  -4.7651  -4.7033  -4.6964  -4.6588  -4.6441  -4.6134
    -4.5903  -4.5803  -4.5226  -4.4710  -4.4543  -4.4050  -4.3315  -4.2601
    -4.2113  -4.1800  -4.0927  -4.0172  -3.9436  -3.9045  -3.8361  -3.8060
    -3.6828  -3.6198  -3.5563  -3.4982  -3.4780  -3.4383  -3.3746  -3.3495
    -3.2878  -3.2569  -3.2228  -3.1819  -3.1060  -3.0808  -3.0398  -2.9927
    -2.9372  -2.9094  -2.8885  -2.8556  -2.8338  -2.7760  -2.7378  -2.7272
    -2.6858  -2.6675  -2.5647  -2.5253  -2.5062  -2.4620  -2.4342  -2.3692
    -2.3055  -2.2409  -2.1745  -2.0958  -2.0310  -1.9860  -1.9502  -1.8810
    -1.8714  -1.8144  -1.7370  -1.6570  -1.6179  -1.5491  -1.5200  -1.4609
    -1.3672  -1.3409  -1.2750  -1.2259  -1.2129  -1.0441  -0.8996  -0.4611
    -0.4251  -0.4086  -0.3509   1.3127   1.4417   1.5296   1.5352   1.6414
     1.6663   1.7044   1.7148   1.7685   1.8415   1.8624   1.9519   1.9896
     2.0089   2.0382   2.0520   2.0856   2.1507   2.1750   2.2250   2.2567
     2.2774   2.3570   2.4216   2.4494   2.4554   2.4933   2.5561   2.5765
     2.7099   2.7367   2.7802   2.7911   2.8597   2.8739   2.9129   2.9398
     3.0028   3.0732   3.0984   3.1909   3.2304   3.2755   3.3260   3.3623
     3.3773   3.4023   3.5623   3.6110   3.7367   3.7550   3.8455   4.0320
     4.2493   4.2630   4.2876   4.3175   4.4611   4.4868   4.5844   4.6891
     4.7247   4.7835   4.8881   5.0196   5.1623   5.2313   5.2866   5.3642
     5.4907   5.5356   5.6352   5.7689   5.7955   5.8015   5.8589   6.0025
     6.0819   6.1035   6.1814   6.2795   6.3450   6.4427   6.7570   6.9643
     7.1672   7.4395   7.6137   7.7291   8.0373   8.0987   8.1840   8.5249
     8.7067   8.7831   8.9033   9.0772   9.0982   9.3974   9.4717

     the Fermi energy is     0.4442 ev

!    total energy              =   -3004.17537661 Ry
     Harris-Foulkes estimate   =   -3004.17537634 Ry
     estimated scf accuracy    <       0.00000051 Ry

     The total energy is the sum of the following terms:

     one-electron contribution =  -42071.95163453 Ry
     hartree contribution      =   21098.44507566 Ry
     xc contribution           =    -546.27591382 Ry
     ewald contribution        =   18515.60733409 Ry
     smearing contrib. (-TS)   =      -0.00023803 Ry

     total magnetization       =     0.00 Bohr mag/cell
     absolute magnetization    =     0.00 Bohr mag/cell

     convergence has been achieved in  11 iterations

     Forces acting on atoms (Ry/au):


     negative rho (up, down):  1.431E-02 1.431E-02
     atom    1 type  1   force =    -0.00012455    0.00027716   -0.13695429
     atom    2 type  2   force =     0.00010869   -0.00011623    0.07521856
     atom    3 type  1   force =     0.00075405    0.00083756   -0.05914766
     atom    4 type  2   force =     0.00465928   -0.00033541    0.00923934
     atom    5 type  1   force =     0.00004209    0.00013138    0.00034766
     atom    6 type  2   force =    -0.00021471    0.00027234   -0.00240123
     atom    7 type  1   force =    -0.00071838   -0.00192960   -0.00153626
     atom    8 type  2   force =    -0.00073033   -0.00013609   -0.00017057
     atom    9 type  1   force =     0.00001309    0.00037973   -0.13698024
     atom   10 type  2   force =     0.00018881   -0.00023290    0.07522419
     atom   11 type  1   force =     0.00078454   -0.00090463   -0.05934002
     atom   12 type  2   force =     0.00431663   -0.00011678    0.00803078
     atom   13 type  1   force =    -0.00047532   -0.00060455    0.00021733
     atom   14 type  2   force =    -0.00029875   -0.00013705   -0.00087225
     atom   15 type  1   force =    -0.00146696    0.00250709   -0.00201639
     atom   16 type  2   force =    -0.00258862    0.00072502   -0.00120692
     atom   17 type  2   force =     0.00025799   -0.00008141    0.08093835
     atom   18 type  1   force =    -0.00015445    0.00030272    0.11715740
     atom   19 type  2   force =     0.00029502    0.00011758   -0.06556357
     atom   20 type  2   force =    -0.06313467   -0.00001558   -0.03173299
     atom   21 type  2   force =     0.06299614    0.00016228   -0.03174593
     atom   22 type  1   force =    -0.00059974    0.00003314    0.05916415
     atom   23 type  2   force =    -0.00009590    0.00026458   -0.00043233
     atom   24 type  2   force =     0.00060570   -0.00018615   -0.02279716
     atom   25 type  2   force =    -0.00448000   -0.00029229    0.00814720
     atom   26 type  1   force =     0.00007818    0.00041961   -0.00013113
     atom   27 type  2   force =     0.00009543   -0.00018998   -0.00016598
     atom   28 type  2   force =    -0.00138094   -0.00008177   -0.00035408
     atom   29 type  2   force =     0.00039842   -0.00018260    0.00003167
     atom   30 type  1   force =     0.00037005    0.00070365    0.00012523
     atom   31 type  2   force =    -0.00055263   -0.00006486    0.00008835
     atom   32 type  2   force =     0.00052766   -0.00022597    0.00022050
     atom   33 type  2   force =     0.00021179   -0.00002205    0.08084377
     atom   34 type  1   force =    -0.00021706    0.00023697    0.11711528
     atom   35 type  2   force =     0.00032577    0.00016379   -0.06564550
     atom   36 type  2   force =    -0.06308002    0.00012253   -0.03204270
     atom   37 type  2   force =     0.06317319    0.00016202   -0.03169645
     atom   38 type  1   force =    -0.00046425   -0.00023213    0.05894287
     atom   39 type  2   force =     0.00012181   -0.00052095   -0.00089805
     atom   40 type  2   force =     0.00044145   -0.00226144   -0.02239841
     atom   41 type  2   force =    -0.00414426   -0.00026604    0.00754240
     atom   42 type  1   force =    -0.00020356   -0.00045885   -0.00015894
     atom   43 type  2   force =     0.00004523    0.00014520    0.00005721
     atom   44 type  2   force =     0.00017497    0.00018517   -0.00010349
     atom   45 type  2   force =    -0.00002666   -0.00013142   -0.00031949
     atom   46 type  1   force =     0.00019117    0.00021795   -0.00059949
     atom   47 type  2   force =    -0.00065612    0.00026385   -0.00011494
     atom   48 type  2   force =     0.01175780    0.00075045   -0.02019194
     atom   49 type  2   force =    -0.00712708    0.00034497    0.02906618

     Total force =     0.367158     Total SCF correction =     0.002112
 !ASE

     Writing output data file calc.save
 
     init_run     :     54.03s CPU     68.13s WALL (       1 calls)
     electrons    :   2411.10s CPU   2912.66s WALL (       1 calls)
     forces       :     40.07s CPU     41.37s WALL (       1 calls)

     Called by init_run:
     wfcinit      :     46.92s CPU     60.26s WALL (       1 calls)
     potinit      :      1.27s CPU      1.56s WALL (       1 calls)

     Called by electrons:
     c_bands      :   2097.95s CPU   2518.23s WALL (      11 calls)
     sum_band     :    263.27s CPU    337.81s WALL (      11 calls)
     v_of_rho     :     12.81s CPU     16.01s WALL (      12 calls)
     newd         :     40.30s CPU     44.04s WALL (      12 calls)
     mix_rho      :      0.50s CPU      0.66s WALL (      11 calls)
     vdW_energy   :      2.24s CPU      2.70s WALL (      13 calls)
     vdW_ffts     :      3.69s CPU      4.82s WALL (      26 calls)
     vdW_v        :      1.33s CPU      1.63s WALL (      13 calls)

     Called by c_bands:
     init_us_2    :      6.16s CPU      6.73s WALL (     960 calls)
     cegterg      :   2056.78s CPU   2474.75s WALL (     440 calls)

     Called by *egterg:
     h_psi        :    819.53s CPU   1143.88s WALL (    2591 calls)
     s_psi        :    100.40s CPU    105.30s WALL (    2591 calls)
     g_psi        :      5.50s CPU      5.60s WALL (    2111 calls)
     cdiaghg      :    754.64s CPU    774.20s WALL (    2551 calls)

     Called by h_psi:
     add_vuspsi   :    100.84s CPU    105.73s WALL (    2591 calls)

     General routines
     calbec       :    153.87s CPU    157.06s WALL (    3071 calls)
     fft          :      8.96s CPU     11.13s WALL (    1029 calls)
     ffts         :      0.05s CPU      0.08s WALL (      46 calls)
     fftw         :    549.39s CPU    926.81s WALL (  772706 calls)
     interpolate  :      0.35s CPU      0.60s WALL (      46 calls)
     davcio       :      0.00s CPU      0.58s WALL (      40 calls)
 
     Parallel routines
     fft_scatter  :    307.51s CPU    515.98s WALL (  773781 calls)
 
     PWSCF        : 41m49.38s CPU    50m27.76s WALL

 
   This run was terminated on:  22:10: 5  10Feb2018            

=------------------------------------------------------------------------------=
   JOB DONE.
=------------------------------------------------------------------------------=
