  python dir          : /home/vossj/suncat/lib/python2.7/site-packages/espresso
  espresso dir        : /home/vossj/suncat/esdld/espresso-dynpy-beef/bin
  pseudo dir          : /home/alatimer/bin/psp/esp_psp_w_gbrvRu/
  ase-espresso py git : ffa2778-git



     Program PWSCF v.5.1rc2 (svn rev. ) starts on 10Mar2018 at 12: 4:45 

     This program is part of the open-source Quantum ESPRESSO suite
     for quantum simulation of materials; please cite
         "P. Giannozzi et al., J. Phys.:Condens. Matter 21 395502 (2009);
          URL http://www.quantum-espresso.org", 
     in publications or presentations arising from this work. More details at
     http://www.quantum-espresso.org/quote

     Parallel version (MPI), running on    16 processors
     R & G space division:  proc/nbgrp/npool/nimage =      16
     Reading input from pw.inp
     Message from routine read_cards :
     DEPRECATED: no units specified in CELL_PARAMETERS card

     Current dimensions of program PWSCF are:
     Max number of different atomic species (ntypx) = 10
     Max number of k-points (npk) =  40000
     Max angular momentum in pseudopotentials (lmaxx) =  3

     **************************************************************************
     Initializing libbeef V0.1.1 with the BEEF-vdW functional.
     Citation: Wellendorff et al., PRB 85, 235149 (2012).
     **************************************************************************


     IMPORTANT: XC functional enforced from input :
     Exchange-correlation      = BEEF ( 1  4 27 13 2)
     Any further DFT definition will be discarded
     Please, verify this is what you really want


     Subspace diagonalization in iterative solution of the eigenvalue problem:
     a serial algorithm will be used

 
     Parallelization info
     --------------------
     sticks:   dense  smooth     PW     G-vecs:    dense   smooth      PW
     Min         281     112     31                68535    17318    2565
     Max         282     113     32                68545    17369    2582
     Sum        4501    1795    503              1096637   277353   41113
 
     Generating pointlists ...
     new r_m :   0.4125 (alat units)  0.7795 (a.u.) for type    1
     new r_m :   0.4125 (alat units)  0.7795 (a.u.) for type    2
     new r_m :   0.4125 (alat units)  0.7795 (a.u.) for type    3


     bravais-lattice index     =            0
     lattice parameter (alat)  =       1.8897  a.u.
     unit-cell volume          =    7990.9933 (a.u.)^3
     number of atoms/cell      =           51
     number of atomic types    =            3
     number of electrons       =       400.00
     number of Kohn-Sham states=          300
     kinetic-energy cutoff     =      40.4243  Ry
     charge density cutoff     =     404.2426  Ry
     convergence threshold     =      7.3E-07
     mixing beta               =       0.1000
     number of iterations used =           10  plain     mixing
     Exchange-correlation      = BEEF ( 1  4 27 13 2)
     nstep                     =           50


     celldm(1)=   1.889726  celldm(2)=   0.000000  celldm(3)=   0.000000
     celldm(4)=   0.000000  celldm(5)=   0.000000  celldm(6)=   0.000000

     crystal axes: (cart. coord. in units of alat)
               a(1) = (   6.590708   0.000000   0.000000 )  
               a(2) = (   0.000000   5.950229   0.000000 )  
               a(3) = (   0.000000   0.000000  30.195235 )  

     reciprocal axes: (cart. coord. in units 2 pi/alat)
               b(1) = (  0.151729  0.000000  0.000000 )  
               b(2) = (  0.000000  0.168061  0.000000 )  
               b(3) = (  0.000000  0.000000  0.033118 )  


     PseudoPot. # 1 for Ti read from file:
     /home/alatimer/bin/psp/esp_psp_w_gbrvRu/Ti.UPF
     MD5 check sum: 8e4df49b7f0d34bbd5052bf3f5ea0213
     Pseudo is Ultrasoft, Zval = 12.0
     Generated by new atomic code, or converted to UPF format
     Using radial grid of  851 points,  6 beta functions with: 
                l(1) =   0
                l(2) =   0
                l(3) =   1
                l(4) =   1
                l(5) =   2
                l(6) =   2
     Q(r) pseudized with  8 coefficients,  rinner =    1.000   1.000   1.000
                                                       1.000   1.000

     PseudoPot. # 2 for  O read from file:
     /home/alatimer/bin/psp/esp_psp_w_gbrvRu/O.UPF
     MD5 check sum: e057bbcf3229fb5d8c36c0c92f9568b4
     Pseudo is Ultrasoft + core correction, Zval =  6.0
     Generated using "atomic" code by A. Dal Corso  v.5.0.2 svn rev. 9415
     Using radial grid of 1095 points,  4 beta functions with: 
                l(1) =   0
                l(2) =   0
                l(3) =   1
                l(4) =   1
     Q(r) pseudized with 0 coefficients 


     PseudoPot. # 3 for  N read from file:
     /home/alatimer/bin/psp/esp_psp_w_gbrvRu/N.UPF
     MD5 check sum: ed8b6a90f28a53b7d71920e7015d2dd6
     Pseudo is Ultrasoft + core correction, Zval =  5.0
     Generated using "atomic" code by A. Dal Corso  v.5.0.2 svn rev. 9415
     Using radial grid of 1085 points,  4 beta functions with: 
                l(1) =   0
                l(2) =   0
                l(3) =   1
                l(4) =   1
     Q(r) pseudized with 0 coefficients 


     vdW kernel table read from file vdW_kernel_table
     MD5 check sum: 095c7af220d748ca6e76c0b4c6cfb241

     atomic species   valence    mass     pseudopotential
        Ti1           12.00    47.88000     Ti( 1.00)
        O1             6.00    15.99940      O( 1.00)
        N1             5.00    14.00670      N( 1.00)

     Starting magnetic structure 
     atomic species   magnetization
        Ti1          0.250
        O1           0.500
        N1           0.600

     No symmetry found



   Cartesian axes

     site n.     atom                  positions (alat units)
         1           Ti1 tau(   1) = (   1.6476770   0.7437786   2.6545865  )
         2           O1  tau(   2) = (   1.6476770   2.2313359   3.9361215  )
         3           Ti1 tau(   3) = (   1.6476770   2.2313359   5.9499405  )
         4           O1  tau(   4) = (   0.3661420   0.7437786   5.9499405  )
         5           Ti1 tau(   5) = (   1.5280591   0.7315068   9.1973351  )
         6           O1  tau(   6) = (   1.6613943   2.1836906  10.6091769  )
         7           Ti1 tau(   7) = (   1.6665780   2.2096385  12.4157880  )
         8           O1  tau(   8) = (   0.4439715   0.7264440  12.7601561  )
         9           Ti1 tau(   9) = (   1.6476770   3.7188931   2.6545865  )
        10           O1  tau(  10) = (   1.6476770   5.2064503   3.9361215  )
        11           Ti1 tau(  11) = (   1.6476770   5.2064503   5.9499405  )
        12           O1  tau(  12) = (   0.3661420   3.7188931   5.9499405  )
        13           Ti1 tau(  13) = (   1.5319291   3.7072436   9.2118370  )
        14           O1  tau(  14) = (   1.6575607   5.2126413  10.6087893  )
        15           Ti1 tau(  15) = (   1.6606453   5.1916961  12.4165775  )
        16           O1  tau(  16) = (   0.4123725   3.7022030  12.5882193  )
        17           O1  tau(  17) = (   1.6476770   2.2313359   1.3730516  )
        18           Ti1 tau(  18) = (   4.9430310   2.2313359   2.6545865  )
        19           O1  tau(  19) = (   4.9430310   2.2313359   4.6684056  )
        20           O1  tau(  20) = (   6.2245660   0.7437786   2.6545865  )
        21           O1  tau(  21) = (   3.6614961   0.7437786   2.6545865  )
        22           Ti1 tau(  22) = (   4.9430310   0.7437786   5.9499405  )
        23           O1  tau(  23) = (   1.6517842   2.2287041   8.0298356  )
        24           O1  tau(  24) = (   4.9430310   2.2313359   7.2314755  )
        25           O1  tau(  25) = (   2.9292120   0.7437786   5.9499405  )
        26           Ti1 tau(  26) = (   4.8605205   2.2076595   9.4238065  )
        27           O1  tau(  27) = (   4.9553550   2.1639423  11.2756624  )
        28           O1  tau(  28) = (   6.2690671   0.7288246   9.2688367  )
        29           O1  tau(  29) = (   3.6660957   0.7249325   9.2867299  )
        30           Ti1 tau(  30) = (   4.9284588   0.7282168  12.7798302  )
        31           O1  tau(  31) = (   4.9953437   2.2216212  13.8477397  )
        32           O1  tau(  32) = (   2.9112183   0.7266397  12.7651274  )
        33           O1  tau(  33) = (   1.6476770   5.2064503   1.3730516  )
        34           Ti1 tau(  34) = (   4.9430310   5.2064503   2.6545865  )
        35           O1  tau(  35) = (   4.9430310   5.2064503   4.6684056  )
        36           O1  tau(  36) = (   6.2245660   3.7188931   2.6545865  )
        37           O1  tau(  37) = (   3.6614961   3.7188931   2.6545865  )
        38           Ti1 tau(  38) = (   4.9430310   3.7188931   5.9499405  )
        39           O1  tau(  39) = (   1.6524867   5.1852222   8.0294571  )
        40           O1  tau(  40) = (   4.9430310   5.2064503   7.2314755  )
        41           O1  tau(  41) = (   2.9292120   3.7188931   5.9499405  )
        42           Ti1 tau(  42) = (   4.8610151   5.1886528   9.4241876  )
        43           O1  tau(  43) = (   4.9550983   5.2107439  11.2753448  )
        44           O1  tau(  44) = (   6.2713562   3.7024388   9.3047907  )
        45           O1  tau(  45) = (   3.6650622   3.7005085   9.3135888  )
        46           Ti1 tau(  46) = (   5.0160509   3.7038162  12.7585864  )
        47           O1  tau(  47) = (   4.9984032   5.1727849  13.8485277  )
        48           O1  tau(  48) = (   2.9655234   3.7049164  12.5317472  )
        49           O1  tau(  49) = (   2.2548149   3.7063572  14.5693114  )
        50           N1  tau(  50) = (   2.4020298   3.6367063  16.9651815  )
        51           N1  tau(  51) = (   2.1425646   3.6919273  15.8611024  )

     number of k points=    40  Fermi-Dirac smearing, width (Ry)=  0.0073
                       cart. coord. in units 2pi/alat
        k(    1) = (   0.0000000   0.0000000   0.0000000), wk =   0.0277778
        k(    2) = (   0.0000000   0.0280101   0.0000000), wk =   0.0555556
        k(    3) = (   0.0000000   0.0560203   0.0000000), wk =   0.0555556
        k(    4) = (   0.0000000  -0.0840304   0.0000000), wk =   0.0277778
        k(    5) = (   0.0252881   0.0000000   0.0000000), wk =   0.0555556
        k(    6) = (   0.0252881   0.0280101   0.0000000), wk =   0.0555556
        k(    7) = (   0.0252881   0.0560203   0.0000000), wk =   0.0555556
        k(    8) = (   0.0252881  -0.0840304   0.0000000), wk =   0.0555556
        k(    9) = (   0.0505763   0.0000000   0.0000000), wk =   0.0555556
        k(   10) = (   0.0505763   0.0280101   0.0000000), wk =   0.0555556
        k(   11) = (   0.0505763   0.0560203   0.0000000), wk =   0.0555556
        k(   12) = (   0.0505763  -0.0840304   0.0000000), wk =   0.0555556
        k(   13) = (  -0.0758644   0.0000000   0.0000000), wk =   0.0277778
        k(   14) = (  -0.0758644   0.0280101   0.0000000), wk =   0.0555556
        k(   15) = (  -0.0758644   0.0560203   0.0000000), wk =   0.0555556
        k(   16) = (  -0.0758644  -0.0840304   0.0000000), wk =   0.0277778
        k(   17) = (  -0.0252881   0.0280101   0.0000000), wk =   0.0555556
        k(   18) = (  -0.0252881   0.0560203   0.0000000), wk =   0.0555556
        k(   19) = (  -0.0505763   0.0280101   0.0000000), wk =   0.0555556
        k(   20) = (  -0.0505763   0.0560203   0.0000000), wk =   0.0555556
        k(   21) = (   0.0000000   0.0000000   0.0000000), wk =   0.0277778
        k(   22) = (   0.0000000   0.0280101   0.0000000), wk =   0.0555556
        k(   23) = (   0.0000000   0.0560203   0.0000000), wk =   0.0555556
        k(   24) = (   0.0000000  -0.0840304   0.0000000), wk =   0.0277778
        k(   25) = (   0.0252881   0.0000000   0.0000000), wk =   0.0555556
        k(   26) = (   0.0252881   0.0280101   0.0000000), wk =   0.0555556
        k(   27) = (   0.0252881   0.0560203   0.0000000), wk =   0.0555556
        k(   28) = (   0.0252881  -0.0840304   0.0000000), wk =   0.0555556
        k(   29) = (   0.0505763   0.0000000   0.0000000), wk =   0.0555556
        k(   30) = (   0.0505763   0.0280101   0.0000000), wk =   0.0555556
        k(   31) = (   0.0505763   0.0560203   0.0000000), wk =   0.0555556
        k(   32) = (   0.0505763  -0.0840304   0.0000000), wk =   0.0555556
        k(   33) = (  -0.0758644   0.0000000   0.0000000), wk =   0.0277778
        k(   34) = (  -0.0758644   0.0280101   0.0000000), wk =   0.0555556
        k(   35) = (  -0.0758644   0.0560203   0.0000000), wk =   0.0555556
        k(   36) = (  -0.0758644  -0.0840304   0.0000000), wk =   0.0277778
        k(   37) = (  -0.0252881   0.0280101   0.0000000), wk =   0.0555556
        k(   38) = (  -0.0252881   0.0560203   0.0000000), wk =   0.0555556
        k(   39) = (  -0.0505763   0.0280101   0.0000000), wk =   0.0555556
        k(   40) = (  -0.0505763   0.0560203   0.0000000), wk =   0.0555556

     Dense  grid:  1096637 G-vectors     FFT dimensions: (  80,  72, 375)

     Smooth grid:   277353 G-vectors     FFT dimensions: (  54,  45, 240)

     Largest allocated arrays     est. size (Mb)     dimensions
        Kohn-Sham Wavefunctions         9.98 Mb     (    2180,  300)
        NL pseudopotentials            18.89 Mb     (    2180,  568)
        Each V/rho on FFT grid          4.22 Mb     (  138240,   2)
        Each G-vector array             0.52 Mb     (   68538)
        G-vector shells                 0.25 Mb     (   33046)
     Largest temporary arrays     est. size (Mb)     dimensions
        Auxiliary wavefunctions        39.92 Mb     (    2180, 1200)
        Each subspace H/S matrix       21.97 Mb     (    1200, 1200)
        Each <psi_i|beta_j> matrix      2.60 Mb     (     568,  300)
        Arrays for rho mixing          21.09 Mb     (  138240,   10)

     Check: negative/imaginary core charge=   -0.000049    0.000000

     The initial density is read from file :
     ./calc.save/charge-density.dat


     negative rho (up, down):  1.158E-02 1.158E-02


     ************************************************************************
     *
     * You are using vdW-DF for exchange-correlation in this calculation.
     * Please cite the following three references that made this development
     * possible:
     *
     *   M. Dion, H. Rydberg, E. Schroder, D. C. Langreth, and
     *   B. I. Lundqvist, Phys. Rev. Lett. 92, 246401 (2004).
     *
     *   T. Thonhauser, V. R. Cooper, S. Li, A. Puzder, P. Hyldgaard, and
     *   D. C. Langreth, Phys. Rev. B 76, 125112 (2007).
     *
     *   G. Roman-Perez and J. M. Soler, Phys. Rev. Lett. 103, 096102 (2009).
     *
     *
     * If you are using vdW-DF2, please also cite:
     *
     *   K. Lee, E. D. Murray, L. Kong, B. I. Lundqvist, and
     *   D. C. Langreth, Phys. Rev. B 82, 081101(R) (2010).
     *
     *
     * If you are calculating the stress with vdW-DF, please also cite:
     *
     *   R. Sabatini, E. Kucukbenli, B. Kolb, T. Thonhauser, and
     *   S. de Gironcoli, J. Phys.: Condens. Matter 24, 424209 (2012).
     *
     ************************************************************************

     Carrying out vdW-DF run using the following parameters:

     Nqs =      20    Nr_points =    1024   r_max =   100.000
     q_mesh =
               0.00001000     0.04494208     0.09755937     0.15916263
               0.23128650     0.31572767     0.41458969     0.53033537
               0.66584808     0.82450364     1.01025438     1.22772762
               1.48234092     1.78043706     2.12944203     2.53805004
               3.01644009     3.57652955     4.23227104     5.00000000

     Gradients computed in reciprocal space

     ************************************************************************


     Starting wfc are  300 randomized atomic wfcs

     total cpu time spent up to now is       71.2 secs

     Self-consistent Calculation

     iteration #  1     ecut=    40.42 Ry     beta=0.10
     Davidson diagonalization with overlap
     ethr =  1.00E-05,  avg # of iterations = 14.8

     negative rho (up, down):  1.158E-02 1.158E-02
 
     Magnetic moment per site:
     atom:    1    charge:    3.1250    magn:   -0.0002    constr:    0.0000
     atom:    2    charge:    2.0894    magn:    0.0001    constr:    0.0000
     atom:    3    charge:    3.1196    magn:   -0.0001    constr:    0.0000
     atom:    4    charge:    2.0870    magn:    0.0000    constr:    0.0000
     atom:    5    charge:    3.1170    magn:   -0.0001    constr:    0.0000
     atom:    6    charge:    2.0917    magn:    0.0001    constr:    0.0000
     atom:    7    charge:    3.1185    magn:   -0.0000    constr:    0.0000
     atom:    8    charge:    2.0816    magn:    0.0001    constr:    0.0000
     atom:    9    charge:    3.1250    magn:   -0.0002    constr:    0.0000
     atom:   10    charge:    2.0894    magn:    0.0001    constr:    0.0000
     atom:   11    charge:    3.1196    magn:   -0.0001    constr:    0.0000
     atom:   12    charge:    2.0870    magn:    0.0000    constr:    0.0000
     atom:   13    charge:    3.1148    magn:   -0.0001    constr:    0.0000
     atom:   14    charge:    2.0912    magn:    0.0001    constr:    0.0000
     atom:   15    charge:    3.1193    magn:   -0.0000    constr:    0.0000
     atom:   16    charge:    2.0883    magn:    0.0001    constr:    0.0000
     atom:   17    charge:    2.0624    magn:    0.0004    constr:    0.0000
     atom:   18    charge:    3.1239    magn:   -0.0000    constr:    0.0000
     atom:   19    charge:    2.0878    magn:   -0.0000    constr:    0.0000
     atom:   20    charge:    2.0847    magn:   -0.0001    constr:    0.0000
     atom:   21    charge:    2.0847    magn:   -0.0001    constr:    0.0000
     atom:   22    charge:    3.1197    magn:   -0.0000    constr:    0.0000
     atom:   23    charge:    2.0908    magn:    0.0001    constr:    0.0000
     atom:   24    charge:    2.0777    magn:    0.0001    constr:    0.0000
     atom:   25    charge:    2.0869    magn:    0.0000    constr:    0.0000
     atom:   26    charge:    3.1165    magn:   -0.0001    constr:    0.0000
     atom:   27    charge:    2.0824    magn:    0.0002    constr:    0.0000
     atom:   28    charge:    2.0879    magn:    0.0001    constr:    0.0000
     atom:   29    charge:    2.0877    magn:    0.0001    constr:    0.0000
     atom:   30    charge:    3.1168    magn:   -0.0001    constr:    0.0000
     atom:   31    charge:    2.0817    magn:    0.0003    constr:    0.0000
     atom:   32    charge:    2.0843    magn:    0.0001    constr:    0.0000
     atom:   33    charge:    2.0624    magn:    0.0004    constr:    0.0000
     atom:   34    charge:    3.1239    magn:   -0.0000    constr:    0.0000
     atom:   35    charge:    2.0878    magn:   -0.0000    constr:    0.0000
     atom:   36    charge:    2.0847    magn:   -0.0001    constr:    0.0000
     atom:   37    charge:    2.0847    magn:   -0.0001    constr:    0.0000
     atom:   38    charge:    3.1197    magn:   -0.0000    constr:    0.0000
     atom:   39    charge:    2.0912    magn:    0.0001    constr:    0.0000
     atom:   40    charge:    2.0777    magn:    0.0001    constr:    0.0000
     atom:   41    charge:    2.0869    magn:    0.0000    constr:    0.0000
     atom:   42    charge:    3.1181    magn:   -0.0001    constr:    0.0000
     atom:   43    charge:    2.0838    magn:    0.0002    constr:    0.0000
     atom:   44    charge:    2.0865    magn:    0.0001    constr:    0.0000
     atom:   45    charge:    2.0871    magn:    0.0001    constr:    0.0000
     atom:   46    charge:    3.1171    magn:   -0.0001    constr:    0.0000
     atom:   47    charge:    2.0795    magn:    0.0003    constr:    0.0000
     atom:   48    charge:    2.0835    magn:    0.0002    constr:    0.0000
     atom:   49    charge:    2.0518    magn:   -0.0000    constr:    0.0000
     atom:   50    charge:    1.2557    magn:   -0.0000    constr:    0.0000
     atom:   51    charge:    1.2855    magn:    0.0000    constr:    0.0000

     total cpu time spent up to now is      832.1 secs

     total energy              =   -3044.96902659 Ry
     Harris-Foulkes estimate   =   -3044.97536632 Ry
     estimated scf accuracy    <       0.04543578 Ry

     total magnetization       =     0.00 Bohr mag/cell
     absolute magnetization    =     0.01 Bohr mag/cell

     iteration #  2     ecut=    40.42 Ry     beta=0.10
     Davidson diagonalization with overlap
     ethr =  1.14E-05,  avg # of iterations =  1.0

     negative rho (up, down):  1.158E-02 1.158E-02
 
     Magnetic moment per site:
     atom:    1    charge:    3.1251    magn:   -0.0001    constr:    0.0000
     atom:    2    charge:    2.0894    magn:    0.0001    constr:    0.0000
     atom:    3    charge:    3.1196    magn:   -0.0000    constr:    0.0000
     atom:    4    charge:    2.0870    magn:    0.0000    constr:    0.0000
     atom:    5    charge:    3.1170    magn:   -0.0000    constr:    0.0000
     atom:    6    charge:    2.0917    magn:    0.0000    constr:    0.0000
     atom:    7    charge:    3.1185    magn:   -0.0000    constr:    0.0000
     atom:    8    charge:    2.0816    magn:    0.0001    constr:    0.0000
     atom:    9    charge:    3.1251    magn:   -0.0001    constr:    0.0000
     atom:   10    charge:    2.0894    magn:    0.0001    constr:    0.0000
     atom:   11    charge:    3.1196    magn:   -0.0000    constr:    0.0000
     atom:   12    charge:    2.0870    magn:    0.0000    constr:    0.0000
     atom:   13    charge:    3.1148    magn:   -0.0000    constr:    0.0000
     atom:   14    charge:    2.0912    magn:    0.0000    constr:    0.0000
     atom:   15    charge:    3.1193    magn:   -0.0000    constr:    0.0000
     atom:   16    charge:    2.0883    magn:    0.0000    constr:    0.0000
     atom:   17    charge:    2.0624    magn:    0.0003    constr:    0.0000
     atom:   18    charge:    3.1239    magn:   -0.0000    constr:    0.0000
     atom:   19    charge:    2.0878    magn:   -0.0000    constr:    0.0000
     atom:   20    charge:    2.0847    magn:   -0.0000    constr:    0.0000
     atom:   21    charge:    2.0846    magn:   -0.0000    constr:    0.0000
     atom:   22    charge:    3.1197    magn:   -0.0000    constr:    0.0000
     atom:   23    charge:    2.0909    magn:    0.0001    constr:    0.0000
     atom:   24    charge:    2.0777    magn:    0.0000    constr:    0.0000
     atom:   25    charge:    2.0869    magn:    0.0000    constr:    0.0000
     atom:   26    charge:    3.1165    magn:   -0.0000    constr:    0.0000
     atom:   27    charge:    2.0824    magn:    0.0001    constr:    0.0000
     atom:   28    charge:    2.0879    magn:    0.0001    constr:    0.0000
     atom:   29    charge:    2.0878    magn:    0.0001    constr:    0.0000
     atom:   30    charge:    3.1168    magn:   -0.0001    constr:    0.0000
     atom:   31    charge:    2.0818    magn:    0.0002    constr:    0.0000
     atom:   32    charge:    2.0843    magn:    0.0000    constr:    0.0000
     atom:   33    charge:    2.0624    magn:    0.0003    constr:    0.0000
     atom:   34    charge:    3.1239    magn:   -0.0000    constr:    0.0000
     atom:   35    charge:    2.0878    magn:   -0.0000    constr:    0.0000
     atom:   36    charge:    2.0847    magn:   -0.0000    constr:    0.0000
     atom:   37    charge:    2.0846    magn:   -0.0000    constr:    0.0000
     atom:   38    charge:    3.1197    magn:   -0.0000    constr:    0.0000
     atom:   39    charge:    2.0912    magn:    0.0001    constr:    0.0000
     atom:   40    charge:    2.0777    magn:    0.0000    constr:    0.0000
     atom:   41    charge:    2.0869    magn:    0.0000    constr:    0.0000
     atom:   42    charge:    3.1181    magn:   -0.0000    constr:    0.0000
     atom:   43    charge:    2.0838    magn:    0.0001    constr:    0.0000
     atom:   44    charge:    2.0865    magn:    0.0001    constr:    0.0000
     atom:   45    charge:    2.0871    magn:    0.0001    constr:    0.0000
     atom:   46    charge:    3.1171    magn:   -0.0001    constr:    0.0000
     atom:   47    charge:    2.0794    magn:    0.0002    constr:    0.0000
     atom:   48    charge:    2.0835    magn:    0.0001    constr:    0.0000
     atom:   49    charge:    2.0518    magn:   -0.0000    constr:    0.0000
     atom:   50    charge:    1.2582    magn:   -0.0000    constr:    0.0000
     atom:   51    charge:    1.2843    magn:    0.0000    constr:    0.0000

     total cpu time spent up to now is     1009.6 secs

     total energy              =   -3044.95109308 Ry
     Harris-Foulkes estimate   =   -3044.96930787 Ry
     estimated scf accuracy    <       0.03089079 Ry

     total magnetization       =     0.00 Bohr mag/cell
     absolute magnetization    =     0.01 Bohr mag/cell

     iteration #  3     ecut=    40.42 Ry     beta=0.10
     Davidson diagonalization with overlap
     ethr =  7.72E-06,  avg # of iterations =  2.5

     negative rho (up, down):  1.158E-02 1.158E-02
 
     Magnetic moment per site:
     atom:    1    charge:    3.1250    magn:   -0.0001    constr:    0.0000
     atom:    2    charge:    2.0894    magn:    0.0001    constr:    0.0000
     atom:    3    charge:    3.1196    magn:   -0.0000    constr:    0.0000
     atom:    4    charge:    2.0870    magn:    0.0000    constr:    0.0000
     atom:    5    charge:    3.1170    magn:   -0.0000    constr:    0.0000
     atom:    6    charge:    2.0917    magn:    0.0000    constr:    0.0000
     atom:    7    charge:    3.1183    magn:   -0.0000    constr:    0.0000
     atom:    8    charge:    2.0816    magn:    0.0000    constr:    0.0000
     atom:    9    charge:    3.1250    magn:   -0.0001    constr:    0.0000
     atom:   10    charge:    2.0894    magn:    0.0001    constr:    0.0000
     atom:   11    charge:    3.1196    magn:   -0.0000    constr:    0.0000
     atom:   12    charge:    2.0870    magn:    0.0000    constr:    0.0000
     atom:   13    charge:    3.1148    magn:   -0.0000    constr:    0.0000
     atom:   14    charge:    2.0911    magn:    0.0000    constr:    0.0000
     atom:   15    charge:    3.1195    magn:   -0.0000    constr:    0.0000
     atom:   16    charge:    2.0883    magn:    0.0000    constr:    0.0000
     atom:   17    charge:    2.0624    magn:    0.0003    constr:    0.0000
     atom:   18    charge:    3.1239    magn:   -0.0000    constr:    0.0000
     atom:   19    charge:    2.0878    magn:   -0.0000    constr:    0.0000
     atom:   20    charge:    2.0847    magn:   -0.0000    constr:    0.0000
     atom:   21    charge:    2.0847    magn:   -0.0000    constr:    0.0000
     atom:   22    charge:    3.1197    magn:   -0.0000    constr:    0.0000
     atom:   23    charge:    2.0909    magn:    0.0000    constr:    0.0000
     atom:   24    charge:    2.0777    magn:    0.0000    constr:    0.0000
     atom:   25    charge:    2.0869    magn:    0.0000    constr:    0.0000
     atom:   26    charge:    3.1165    magn:   -0.0000    constr:    0.0000
     atom:   27    charge:    2.0823    magn:    0.0001    constr:    0.0000
     atom:   28    charge:    2.0879    magn:    0.0001    constr:    0.0000
     atom:   29    charge:    2.0877    magn:    0.0001    constr:    0.0000
     atom:   30    charge:    3.1168    magn:   -0.0001    constr:    0.0000
     atom:   31    charge:    2.0813    magn:    0.0002    constr:    0.0000
     atom:   32    charge:    2.0843    magn:    0.0000    constr:    0.0000
     atom:   33    charge:    2.0624    magn:    0.0003    constr:    0.0000
     atom:   34    charge:    3.1239    magn:   -0.0000    constr:    0.0000
     atom:   35    charge:    2.0878    magn:   -0.0000    constr:    0.0000
     atom:   36    charge:    2.0847    magn:   -0.0000    constr:    0.0000
     atom:   37    charge:    2.0847    magn:   -0.0000    constr:    0.0000
     atom:   38    charge:    3.1197    magn:   -0.0000    constr:    0.0000
     atom:   39    charge:    2.0912    magn:    0.0000    constr:    0.0000
     atom:   40    charge:    2.0777    magn:    0.0000    constr:    0.0000
     atom:   41    charge:    2.0869    magn:    0.0000    constr:    0.0000
     atom:   42    charge:    3.1181    magn:   -0.0000    constr:    0.0000
     atom:   43    charge:    2.0838    magn:    0.0001    constr:    0.0000
     atom:   44    charge:    2.0865    magn:    0.0001    constr:    0.0000
     atom:   45    charge:    2.0871    magn:    0.0001    constr:    0.0000
     atom:   46    charge:    3.1171    magn:   -0.0001    constr:    0.0000
     atom:   47    charge:    2.0798    magn:    0.0002    constr:    0.0000
     atom:   48    charge:    2.0835    magn:    0.0001    constr:    0.0000
     atom:   49    charge:    2.0520    magn:   -0.0000    constr:    0.0000
     atom:   50    charge:    1.2575    magn:   -0.0000    constr:    0.0000
     atom:   51    charge:    1.2851    magn:    0.0000    constr:    0.0000

     total cpu time spent up to now is     1215.9 secs

     total energy              =   -3044.95656326 Ry
     Harris-Foulkes estimate   =   -3044.95665834 Ry
     estimated scf accuracy    <       0.00043069 Ry

     total magnetization       =     0.00 Bohr mag/cell
     absolute magnetization    =     0.00 Bohr mag/cell

     iteration #  4     ecut=    40.42 Ry     beta=0.10
     Davidson diagonalization with overlap
     ethr =  1.08E-07,  avg # of iterations =  3.2

     negative rho (up, down):  1.158E-02 1.158E-02
 
     Magnetic moment per site:
     atom:    1    charge:    3.1250    magn:   -0.0001    constr:    0.0000
     atom:    2    charge:    2.0894    magn:    0.0001    constr:    0.0000
     atom:    3    charge:    3.1196    magn:   -0.0000    constr:    0.0000
     atom:    4    charge:    2.0870    magn:    0.0000    constr:    0.0000
     atom:    5    charge:    3.1170    magn:   -0.0000    constr:    0.0000
     atom:    6    charge:    2.0917    magn:    0.0000    constr:    0.0000
     atom:    7    charge:    3.1184    magn:   -0.0000    constr:    0.0000
     atom:    8    charge:    2.0816    magn:    0.0000    constr:    0.0000
     atom:    9    charge:    3.1250    magn:   -0.0001    constr:    0.0000
     atom:   10    charge:    2.0894    magn:    0.0001    constr:    0.0000
     atom:   11    charge:    3.1196    magn:   -0.0000    constr:    0.0000
     atom:   12    charge:    2.0870    magn:    0.0000    constr:    0.0000
     atom:   13    charge:    3.1148    magn:   -0.0000    constr:    0.0000
     atom:   14    charge:    2.0911    magn:    0.0000    constr:    0.0000
     atom:   15    charge:    3.1195    magn:   -0.0000    constr:    0.0000
     atom:   16    charge:    2.0883    magn:    0.0000    constr:    0.0000
     atom:   17    charge:    2.0624    magn:    0.0002    constr:    0.0000
     atom:   18    charge:    3.1239    magn:   -0.0000    constr:    0.0000
     atom:   19    charge:    2.0878    magn:   -0.0000    constr:    0.0000
     atom:   20    charge:    2.0847    magn:   -0.0000    constr:    0.0000
     atom:   21    charge:    2.0847    magn:   -0.0000    constr:    0.0000
     atom:   22    charge:    3.1197    magn:   -0.0000    constr:    0.0000
     atom:   23    charge:    2.0909    magn:    0.0000    constr:    0.0000
     atom:   24    charge:    2.0777    magn:    0.0000    constr:    0.0000
     atom:   25    charge:    2.0869    magn:    0.0000    constr:    0.0000
     atom:   26    charge:    3.1165    magn:   -0.0000    constr:    0.0000
     atom:   27    charge:    2.0824    magn:    0.0001    constr:    0.0000
     atom:   28    charge:    2.0879    magn:    0.0001    constr:    0.0000
     atom:   29    charge:    2.0877    magn:    0.0000    constr:    0.0000
     atom:   30    charge:    3.1168    magn:   -0.0001    constr:    0.0000
     atom:   31    charge:    2.0814    magn:    0.0002    constr:    0.0000
     atom:   32    charge:    2.0843    magn:    0.0000    constr:    0.0000
     atom:   33    charge:    2.0624    magn:    0.0002    constr:    0.0000
     atom:   34    charge:    3.1239    magn:   -0.0000    constr:    0.0000
     atom:   35    charge:    2.0878    magn:   -0.0000    constr:    0.0000
     atom:   36    charge:    2.0847    magn:   -0.0000    constr:    0.0000
     atom:   37    charge:    2.0847    magn:   -0.0000    constr:    0.0000
     atom:   38    charge:    3.1197    magn:   -0.0000    constr:    0.0000
     atom:   39    charge:    2.0912    magn:    0.0000    constr:    0.0000
     atom:   40    charge:    2.0777    magn:    0.0000    constr:    0.0000
     atom:   41    charge:    2.0869    magn:    0.0000    constr:    0.0000
     atom:   42    charge:    3.1181    magn:   -0.0000    constr:    0.0000
     atom:   43    charge:    2.0838    magn:    0.0001    constr:    0.0000
     atom:   44    charge:    2.0865    magn:    0.0001    constr:    0.0000
     atom:   45    charge:    2.0871    magn:    0.0000    constr:    0.0000
     atom:   46    charge:    3.1171    magn:   -0.0001    constr:    0.0000
     atom:   47    charge:    2.0798    magn:    0.0002    constr:    0.0000
     atom:   48    charge:    2.0835    magn:    0.0001    constr:    0.0000
     atom:   49    charge:    2.0519    magn:   -0.0000    constr:    0.0000
     atom:   50    charge:    1.2576    magn:   -0.0000    constr:    0.0000
     atom:   51    charge:    1.2852    magn:    0.0000    constr:    0.0000

     total cpu time spent up to now is     1427.6 secs

     total energy              =   -3044.95658869 Ry
     Harris-Foulkes estimate   =   -3044.95660543 Ry
     estimated scf accuracy    <       0.00014945 Ry

     total magnetization       =     0.00 Bohr mag/cell
     absolute magnetization    =     0.00 Bohr mag/cell

     iteration #  5     ecut=    40.42 Ry     beta=0.10
     Davidson diagonalization with overlap
     ethr =  3.74E-08,  avg # of iterations =  2.0

     negative rho (up, down):  1.158E-02 1.158E-02
 
     Magnetic moment per site:
     atom:    1    charge:    3.1250    magn:   -0.0001    constr:    0.0000
     atom:    2    charge:    2.0894    magn:    0.0000    constr:    0.0000
     atom:    3    charge:    3.1196    magn:   -0.0000    constr:    0.0000
     atom:    4    charge:    2.0870    magn:    0.0000    constr:    0.0000
     atom:    5    charge:    3.1170    magn:   -0.0000    constr:    0.0000
     atom:    6    charge:    2.0917    magn:    0.0000    constr:    0.0000
     atom:    7    charge:    3.1185    magn:   -0.0000    constr:    0.0000
     atom:    8    charge:    2.0815    magn:    0.0000    constr:    0.0000
     atom:    9    charge:    3.1250    magn:   -0.0001    constr:    0.0000
     atom:   10    charge:    2.0894    magn:    0.0000    constr:    0.0000
     atom:   11    charge:    3.1196    magn:   -0.0000    constr:    0.0000
     atom:   12    charge:    2.0870    magn:    0.0000    constr:    0.0000
     atom:   13    charge:    3.1148    magn:   -0.0000    constr:    0.0000
     atom:   14    charge:    2.0912    magn:    0.0000    constr:    0.0000
     atom:   15    charge:    3.1194    magn:   -0.0000    constr:    0.0000
     atom:   16    charge:    2.0883    magn:    0.0000    constr:    0.0000
     atom:   17    charge:    2.0624    magn:    0.0002    constr:    0.0000
     atom:   18    charge:    3.1239    magn:   -0.0000    constr:    0.0000
     atom:   19    charge:    2.0878    magn:   -0.0000    constr:    0.0000
     atom:   20    charge:    2.0847    magn:   -0.0000    constr:    0.0000
     atom:   21    charge:    2.0847    magn:   -0.0000    constr:    0.0000
     atom:   22    charge:    3.1197    magn:   -0.0000    constr:    0.0000
     atom:   23    charge:    2.0909    magn:    0.0000    constr:    0.0000
     atom:   24    charge:    2.0777    magn:    0.0000    constr:    0.0000
     atom:   25    charge:    2.0869    magn:    0.0000    constr:    0.0000
     atom:   26    charge:    3.1165    magn:   -0.0000    constr:    0.0000
     atom:   27    charge:    2.0824    magn:    0.0001    constr:    0.0000
     atom:   28    charge:    2.0879    magn:    0.0000    constr:    0.0000
     atom:   29    charge:    2.0877    magn:    0.0000    constr:    0.0000
     atom:   30    charge:    3.1168    magn:   -0.0001    constr:    0.0000
     atom:   31    charge:    2.0815    magn:    0.0001    constr:    0.0000
     atom:   32    charge:    2.0842    magn:    0.0000    constr:    0.0000
     atom:   33    charge:    2.0624    magn:    0.0002    constr:    0.0000
     atom:   34    charge:    3.1239    magn:   -0.0000    constr:    0.0000
     atom:   35    charge:    2.0878    magn:   -0.0000    constr:    0.0000
     atom:   36    charge:    2.0847    magn:   -0.0000    constr:    0.0000
     atom:   37    charge:    2.0847    magn:   -0.0000    constr:    0.0000
     atom:   38    charge:    3.1197    magn:   -0.0000    constr:    0.0000
     atom:   39    charge:    2.0912    magn:    0.0000    constr:    0.0000
     atom:   40    charge:    2.0777    magn:    0.0000    constr:    0.0000
     atom:   41    charge:    2.0869    magn:    0.0000    constr:    0.0000
     atom:   42    charge:    3.1181    magn:   -0.0000    constr:    0.0000
     atom:   43    charge:    2.0837    magn:    0.0001    constr:    0.0000
     atom:   44    charge:    2.0865    magn:    0.0000    constr:    0.0000
     atom:   45    charge:    2.0871    magn:    0.0000    constr:    0.0000
     atom:   46    charge:    3.1171    magn:   -0.0001    constr:    0.0000
     atom:   47    charge:    2.0797    magn:    0.0001    constr:    0.0000
     atom:   48    charge:    2.0835    magn:    0.0001    constr:    0.0000
     atom:   49    charge:    2.0517    magn:    0.0000    constr:    0.0000
     atom:   50    charge:    1.2577    magn:   -0.0000    constr:    0.0000
     atom:   51    charge:    1.2855    magn:    0.0000    constr:    0.0000

     total cpu time spent up to now is     1618.8 secs

     total energy              =   -3044.95656917 Ry
     Harris-Foulkes estimate   =   -3044.95659207 Ry
     estimated scf accuracy    <       0.00009277 Ry

     total magnetization       =     0.00 Bohr mag/cell
     absolute magnetization    =     0.00 Bohr mag/cell

     iteration #  6     ecut=    40.42 Ry     beta=0.10
     Davidson diagonalization with overlap
     ethr =  2.32E-08,  avg # of iterations =  3.0

     negative rho (up, down):  1.158E-02 1.158E-02
 
     Magnetic moment per site:
     atom:    1    charge:    3.1250    magn:   -0.0001    constr:    0.0000
     atom:    2    charge:    2.0894    magn:    0.0000    constr:    0.0000
     atom:    3    charge:    3.1196    magn:   -0.0000    constr:    0.0000
     atom:    4    charge:    2.0870    magn:    0.0000    constr:    0.0000
     atom:    5    charge:    3.1170    magn:   -0.0000    constr:    0.0000
     atom:    6    charge:    2.0917    magn:    0.0000    constr:    0.0000
     atom:    7    charge:    3.1185    magn:   -0.0000    constr:    0.0000
     atom:    8    charge:    2.0815    magn:    0.0000    constr:    0.0000
     atom:    9    charge:    3.1250    magn:   -0.0001    constr:    0.0000
     atom:   10    charge:    2.0894    magn:    0.0000    constr:    0.0000
     atom:   11    charge:    3.1196    magn:   -0.0000    constr:    0.0000
     atom:   12    charge:    2.0870    magn:    0.0000    constr:    0.0000
     atom:   13    charge:    3.1148    magn:   -0.0000    constr:    0.0000
     atom:   14    charge:    2.0912    magn:    0.0000    constr:    0.0000
     atom:   15    charge:    3.1194    magn:   -0.0000    constr:    0.0000
     atom:   16    charge:    2.0883    magn:    0.0000    constr:    0.0000
     atom:   17    charge:    2.0624    magn:    0.0001    constr:    0.0000
     atom:   18    charge:    3.1239    magn:   -0.0000    constr:    0.0000
     atom:   19    charge:    2.0878    magn:   -0.0000    constr:    0.0000
     atom:   20    charge:    2.0847    magn:   -0.0000    constr:    0.0000
     atom:   21    charge:    2.0847    magn:   -0.0000    constr:    0.0000
     atom:   22    charge:    3.1197    magn:   -0.0000    constr:    0.0000
     atom:   23    charge:    2.0909    magn:    0.0000    constr:    0.0000
     atom:   24    charge:    2.0777    magn:    0.0000    constr:    0.0000
     atom:   25    charge:    2.0869    magn:    0.0000    constr:    0.0000
     atom:   26    charge:    3.1165    magn:   -0.0000    constr:    0.0000
     atom:   27    charge:    2.0824    magn:    0.0001    constr:    0.0000
     atom:   28    charge:    2.0879    magn:    0.0000    constr:    0.0000
     atom:   29    charge:    2.0877    magn:    0.0000    constr:    0.0000
     atom:   30    charge:    3.1168    magn:   -0.0000    constr:    0.0000
     atom:   31    charge:    2.0815    magn:    0.0001    constr:    0.0000
     atom:   32    charge:    2.0842    magn:    0.0000    constr:    0.0000
     atom:   33    charge:    2.0624    magn:    0.0001    constr:    0.0000
     atom:   34    charge:    3.1239    magn:   -0.0000    constr:    0.0000
     atom:   35    charge:    2.0878    magn:   -0.0000    constr:    0.0000
     atom:   36    charge:    2.0847    magn:   -0.0000    constr:    0.0000
     atom:   37    charge:    2.0847    magn:   -0.0000    constr:    0.0000
     atom:   38    charge:    3.1197    magn:   -0.0000    constr:    0.0000
     atom:   39    charge:    2.0912    magn:    0.0000    constr:    0.0000
     atom:   40    charge:    2.0777    magn:    0.0000    constr:    0.0000
     atom:   41    charge:    2.0869    magn:    0.0000    constr:    0.0000
     atom:   42    charge:    3.1181    magn:   -0.0000    constr:    0.0000
     atom:   43    charge:    2.0838    magn:    0.0001    constr:    0.0000
     atom:   44    charge:    2.0865    magn:    0.0000    constr:    0.0000
     atom:   45    charge:    2.0871    magn:    0.0000    constr:    0.0000
     atom:   46    charge:    3.1171    magn:   -0.0000    constr:    0.0000
     atom:   47    charge:    2.0796    magn:    0.0001    constr:    0.0000
     atom:   48    charge:    2.0835    magn:    0.0000    constr:    0.0000
     atom:   49    charge:    2.0519    magn:    0.0000    constr:    0.0000
     atom:   50    charge:    1.2578    magn:   -0.0000    constr:    0.0000
     atom:   51    charge:    1.2855    magn:    0.0000    constr:    0.0000

     total cpu time spent up to now is     1825.3 secs

     total energy              =   -3044.95657563 Ry
     Harris-Foulkes estimate   =   -3044.95657646 Ry
     estimated scf accuracy    <       0.00001259 Ry

     total magnetization       =     0.00 Bohr mag/cell
     absolute magnetization    =     0.00 Bohr mag/cell

     iteration #  7     ecut=    40.42 Ry     beta=0.10
     Davidson diagonalization with overlap
     ethr =  3.15E-09,  avg # of iterations =  2.0

     negative rho (up, down):  1.158E-02 1.158E-02
 
     Magnetic moment per site:
     atom:    1    charge:    3.1250    magn:   -0.0000    constr:    0.0000
     atom:    2    charge:    2.0894    magn:    0.0000    constr:    0.0000
     atom:    3    charge:    3.1196    magn:   -0.0000    constr:    0.0000
     atom:    4    charge:    2.0870    magn:    0.0000    constr:    0.0000
     atom:    5    charge:    3.1170    magn:   -0.0000    constr:    0.0000
     atom:    6    charge:    2.0917    magn:    0.0000    constr:    0.0000
     atom:    7    charge:    3.1185    magn:   -0.0000    constr:    0.0000
     atom:    8    charge:    2.0816    magn:    0.0000    constr:    0.0000
     atom:    9    charge:    3.1250    magn:   -0.0000    constr:    0.0000
     atom:   10    charge:    2.0894    magn:    0.0000    constr:    0.0000
     atom:   11    charge:    3.1196    magn:   -0.0000    constr:    0.0000
     atom:   12    charge:    2.0870    magn:    0.0000    constr:    0.0000
     atom:   13    charge:    3.1148    magn:   -0.0000    constr:    0.0000
     atom:   14    charge:    2.0911    magn:    0.0000    constr:    0.0000
     atom:   15    charge:    3.1194    magn:   -0.0000    constr:    0.0000
     atom:   16    charge:    2.0883    magn:    0.0000    constr:    0.0000
     atom:   17    charge:    2.0624    magn:    0.0001    constr:    0.0000
     atom:   18    charge:    3.1239    magn:   -0.0000    constr:    0.0000
     atom:   19    charge:    2.0878    magn:   -0.0000    constr:    0.0000
     atom:   20    charge:    2.0847    magn:   -0.0000    constr:    0.0000
     atom:   21    charge:    2.0847    magn:   -0.0000    constr:    0.0000
     atom:   22    charge:    3.1197    magn:   -0.0000    constr:    0.0000
     atom:   23    charge:    2.0909    magn:    0.0000    constr:    0.0000
     atom:   24    charge:    2.0777    magn:    0.0000    constr:    0.0000
     atom:   25    charge:    2.0869    magn:    0.0000    constr:    0.0000
     atom:   26    charge:    3.1165    magn:   -0.0000    constr:    0.0000
     atom:   27    charge:    2.0824    magn:    0.0000    constr:    0.0000
     atom:   28    charge:    2.0879    magn:    0.0000    constr:    0.0000
     atom:   29    charge:    2.0877    magn:    0.0000    constr:    0.0000
     atom:   30    charge:    3.1168    magn:   -0.0000    constr:    0.0000
     atom:   31    charge:    2.0816    magn:    0.0001    constr:    0.0000
     atom:   32    charge:    2.0843    magn:    0.0000    constr:    0.0000
     atom:   33    charge:    2.0624    magn:    0.0001    constr:    0.0000
     atom:   34    charge:    3.1239    magn:   -0.0000    constr:    0.0000
     atom:   35    charge:    2.0878    magn:   -0.0000    constr:    0.0000
     atom:   36    charge:    2.0847    magn:   -0.0000    constr:    0.0000
     atom:   37    charge:    2.0847    magn:   -0.0000    constr:    0.0000
     atom:   38    charge:    3.1197    magn:   -0.0000    constr:    0.0000
     atom:   39    charge:    2.0912    magn:    0.0000    constr:    0.0000
     atom:   40    charge:    2.0777    magn:    0.0000    constr:    0.0000
     atom:   41    charge:    2.0869    magn:    0.0000    constr:    0.0000
     atom:   42    charge:    3.1181    magn:   -0.0000    constr:    0.0000
     atom:   43    charge:    2.0838    magn:    0.0000    constr:    0.0000
     atom:   44    charge:    2.0865    magn:    0.0000    constr:    0.0000
     atom:   45    charge:    2.0871    magn:    0.0000    constr:    0.0000
     atom:   46    charge:    3.1171    magn:   -0.0000    constr:    0.0000
     atom:   47    charge:    2.0796    magn:    0.0001    constr:    0.0000
     atom:   48    charge:    2.0835    magn:    0.0000    constr:    0.0000
     atom:   49    charge:    2.0519    magn:    0.0000    constr:    0.0000
     atom:   50    charge:    1.2578    magn:   -0.0000    constr:    0.0000
     atom:   51    charge:    1.2854    magn:    0.0000    constr:    0.0000

     total cpu time spent up to now is     2018.0 secs

     total energy              =   -3044.95657634 Ry
     Harris-Foulkes estimate   =   -3044.95657644 Ry
     estimated scf accuracy    <       0.00000344 Ry

     total magnetization       =     0.00 Bohr mag/cell
     absolute magnetization    =     0.00 Bohr mag/cell

     iteration #  8     ecut=    40.42 Ry     beta=0.10
     Davidson diagonalization with overlap
     ethr =  8.61E-10,  avg # of iterations =  3.0

     negative rho (up, down):  1.158E-02 1.158E-02
 
     Magnetic moment per site:
     atom:    1    charge:    3.1250    magn:   -0.0000    constr:    0.0000
     atom:    2    charge:    2.0894    magn:    0.0000    constr:    0.0000
     atom:    3    charge:    3.1196    magn:   -0.0000    constr:    0.0000
     atom:    4    charge:    2.0870    magn:    0.0000    constr:    0.0000
     atom:    5    charge:    3.1170    magn:   -0.0000    constr:    0.0000
     atom:    6    charge:    2.0917    magn:    0.0000    constr:    0.0000
     atom:    7    charge:    3.1185    magn:   -0.0000    constr:    0.0000
     atom:    8    charge:    2.0816    magn:    0.0000    constr:    0.0000
     atom:    9    charge:    3.1250    magn:   -0.0000    constr:    0.0000
     atom:   10    charge:    2.0894    magn:    0.0000    constr:    0.0000
     atom:   11    charge:    3.1196    magn:   -0.0000    constr:    0.0000
     atom:   12    charge:    2.0870    magn:    0.0000    constr:    0.0000
     atom:   13    charge:    3.1148    magn:   -0.0000    constr:    0.0000
     atom:   14    charge:    2.0911    magn:    0.0000    constr:    0.0000
     atom:   15    charge:    3.1194    magn:   -0.0000    constr:    0.0000
     atom:   16    charge:    2.0883    magn:    0.0000    constr:    0.0000
     atom:   17    charge:    2.0624    magn:    0.0001    constr:    0.0000
     atom:   18    charge:    3.1239    magn:   -0.0000    constr:    0.0000
     atom:   19    charge:    2.0878    magn:   -0.0000    constr:    0.0000
     atom:   20    charge:    2.0847    magn:   -0.0000    constr:    0.0000
     atom:   21    charge:    2.0847    magn:   -0.0000    constr:    0.0000
     atom:   22    charge:    3.1197    magn:   -0.0000    constr:    0.0000
     atom:   23    charge:    2.0909    magn:    0.0000    constr:    0.0000
     atom:   24    charge:    2.0777    magn:    0.0000    constr:    0.0000
     atom:   25    charge:    2.0869    magn:    0.0000    constr:    0.0000
     atom:   26    charge:    3.1165    magn:   -0.0000    constr:    0.0000
     atom:   27    charge:    2.0824    magn:    0.0000    constr:    0.0000
     atom:   28    charge:    2.0879    magn:    0.0000    constr:    0.0000
     atom:   29    charge:    2.0877    magn:    0.0000    constr:    0.0000
     atom:   30    charge:    3.1168    magn:   -0.0000    constr:    0.0000
     atom:   31    charge:    2.0815    magn:    0.0001    constr:    0.0000
     atom:   32    charge:    2.0843    magn:    0.0000    constr:    0.0000
     atom:   33    charge:    2.0624    magn:    0.0001    constr:    0.0000
     atom:   34    charge:    3.1239    magn:   -0.0000    constr:    0.0000
     atom:   35    charge:    2.0878    magn:   -0.0000    constr:    0.0000
     atom:   36    charge:    2.0847    magn:   -0.0000    constr:    0.0000
     atom:   37    charge:    2.0847    magn:   -0.0000    constr:    0.0000
     atom:   38    charge:    3.1197    magn:   -0.0000    constr:    0.0000
     atom:   39    charge:    2.0912    magn:    0.0000    constr:    0.0000
     atom:   40    charge:    2.0777    magn:    0.0000    constr:    0.0000
     atom:   41    charge:    2.0869    magn:    0.0000    constr:    0.0000
     atom:   42    charge:    3.1181    magn:   -0.0000    constr:    0.0000
     atom:   43    charge:    2.0838    magn:    0.0000    constr:    0.0000
     atom:   44    charge:    2.0865    magn:    0.0000    constr:    0.0000
     atom:   45    charge:    2.0871    magn:    0.0000    constr:    0.0000
     atom:   46    charge:    3.1171    magn:   -0.0000    constr:    0.0000
     atom:   47    charge:    2.0797    magn:    0.0001    constr:    0.0000
     atom:   48    charge:    2.0835    magn:    0.0000    constr:    0.0000
     atom:   49    charge:    2.0519    magn:    0.0000    constr:    0.0000
     atom:   50    charge:    1.2578    magn:   -0.0000    constr:    0.0000
     atom:   51    charge:    1.2854    magn:    0.0000    constr:    0.0000

     total cpu time spent up to now is     2223.5 secs

     total energy              =   -3044.95657647 Ry
     Harris-Foulkes estimate   =   -3044.95657654 Ry
     estimated scf accuracy    <       0.00000134 Ry

     total magnetization       =     0.00 Bohr mag/cell
     absolute magnetization    =     0.00 Bohr mag/cell

     iteration #  9     ecut=    40.42 Ry     beta=0.10
     Davidson diagonalization with overlap
     ethr =  3.34E-10,  avg # of iterations =  2.0

     negative rho (up, down):  1.158E-02 1.158E-02
 
     Magnetic moment per site:
     atom:    1    charge:    3.1250    magn:   -0.0000    constr:    0.0000
     atom:    2    charge:    2.0894    magn:    0.0000    constr:    0.0000
     atom:    3    charge:    3.1196    magn:   -0.0000    constr:    0.0000
     atom:    4    charge:    2.0870    magn:    0.0000    constr:    0.0000
     atom:    5    charge:    3.1170    magn:   -0.0000    constr:    0.0000
     atom:    6    charge:    2.0917    magn:    0.0000    constr:    0.0000
     atom:    7    charge:    3.1185    magn:   -0.0000    constr:    0.0000
     atom:    8    charge:    2.0815    magn:    0.0000    constr:    0.0000
     atom:    9    charge:    3.1250    magn:   -0.0000    constr:    0.0000
     atom:   10    charge:    2.0894    magn:    0.0000    constr:    0.0000
     atom:   11    charge:    3.1196    magn:   -0.0000    constr:    0.0000
     atom:   12    charge:    2.0870    magn:    0.0000    constr:    0.0000
     atom:   13    charge:    3.1148    magn:   -0.0000    constr:    0.0000
     atom:   14    charge:    2.0912    magn:    0.0000    constr:    0.0000
     atom:   15    charge:    3.1194    magn:   -0.0000    constr:    0.0000
     atom:   16    charge:    2.0883    magn:    0.0000    constr:    0.0000
     atom:   17    charge:    2.0624    magn:    0.0000    constr:    0.0000
     atom:   18    charge:    3.1239    magn:   -0.0000    constr:    0.0000
     atom:   19    charge:    2.0878    magn:   -0.0000    constr:    0.0000
     atom:   20    charge:    2.0847    magn:   -0.0000    constr:    0.0000
     atom:   21    charge:    2.0847    magn:   -0.0000    constr:    0.0000
     atom:   22    charge:    3.1197    magn:   -0.0000    constr:    0.0000
     atom:   23    charge:    2.0908    magn:    0.0000    constr:    0.0000
     atom:   24    charge:    2.0777    magn:    0.0000    constr:    0.0000
     atom:   25    charge:    2.0869    magn:    0.0000    constr:    0.0000
     atom:   26    charge:    3.1165    magn:   -0.0000    constr:    0.0000
     atom:   27    charge:    2.0824    magn:    0.0000    constr:    0.0000
     atom:   28    charge:    2.0879    magn:    0.0000    constr:    0.0000
     atom:   29    charge:    2.0877    magn:    0.0000    constr:    0.0000
     atom:   30    charge:    3.1168    magn:   -0.0000    constr:    0.0000
     atom:   31    charge:    2.0815    magn:    0.0000    constr:    0.0000
     atom:   32    charge:    2.0842    magn:    0.0000    constr:    0.0000
     atom:   33    charge:    2.0624    magn:    0.0000    constr:    0.0000
     atom:   34    charge:    3.1239    magn:   -0.0000    constr:    0.0000
     atom:   35    charge:    2.0878    magn:   -0.0000    constr:    0.0000
     atom:   36    charge:    2.0847    magn:   -0.0000    constr:    0.0000
     atom:   37    charge:    2.0847    magn:   -0.0000    constr:    0.0000
     atom:   38    charge:    3.1197    magn:   -0.0000    constr:    0.0000
     atom:   39    charge:    2.0912    magn:    0.0000    constr:    0.0000
     atom:   40    charge:    2.0777    magn:    0.0000    constr:    0.0000
     atom:   41    charge:    2.0869    magn:    0.0000    constr:    0.0000
     atom:   42    charge:    3.1181    magn:   -0.0000    constr:    0.0000
     atom:   43    charge:    2.0838    magn:    0.0000    constr:    0.0000
     atom:   44    charge:    2.0865    magn:    0.0000    constr:    0.0000
     atom:   45    charge:    2.0871    magn:    0.0000    constr:    0.0000
     atom:   46    charge:    3.1171    magn:   -0.0000    constr:    0.0000
     atom:   47    charge:    2.0796    magn:    0.0000    constr:    0.0000
     atom:   48    charge:    2.0835    magn:    0.0000    constr:    0.0000
     atom:   49    charge:    2.0518    magn:    0.0000    constr:    0.0000
     atom:   50    charge:    1.2578    magn:   -0.0000    constr:    0.0000
     atom:   51    charge:    1.2854    magn:    0.0000    constr:    0.0000

     total cpu time spent up to now is     2415.7 secs

     End of self-consistent calculation

 ------ SPIN UP ------------


          k = 0.0000 0.0000 0.0000 ( 34665 PWs)   bands (ev):

   -57.8238 -57.7889 -57.5142 -57.4586 -57.3905 -57.3543 -57.2794 -57.2440
   -57.1817 -57.1464 -57.1185 -57.0831 -56.8853 -56.8132 -56.2859 -56.2506
   -34.2602 -34.1050 -34.0764 -34.0610 -34.0254 -33.9310 -33.8703 -33.8663
   -33.8285 -33.7728 -33.7345 -33.7242 -33.7202 -33.6890 -33.6730 -33.6695
   -33.6503 -33.6408 -33.6199 -33.5579 -33.5272 -33.4614 -33.4607 -33.4401
   -33.4331 -33.4305 -33.3891 -33.3843 -33.3797 -33.3617 -33.3573 -33.3370
   -33.3144 -33.3084 -33.2807 -33.2753 -33.2498 -33.1465 -33.1417 -33.0850
   -33.0406 -32.9397 -32.7046 -32.6370 -32.6110 -32.5085 -32.4168 -32.3086
   -24.2357 -20.9958 -18.1775 -17.9763 -17.7534 -17.6313 -17.4971 -17.4955
   -17.2136 -17.1928 -17.1477 -17.0553 -17.0527 -17.0108 -16.9955 -16.9224
   -16.8751 -16.8631 -16.8412 -16.8003 -16.7378 -16.6913 -16.5738 -16.5503
   -16.5224 -16.5104 -16.4229 -16.3127 -16.2773 -16.2460 -16.1093 -16.0794
   -14.8681 -14.7833  -9.7943  -7.4784  -7.4634  -5.9973  -5.5693  -5.5124
    -5.3619  -5.3538  -5.2962  -4.9989  -4.9394  -4.5895  -4.5855  -4.5502
    -4.5409  -4.4931  -4.3684  -4.2723  -4.2238  -4.2061  -4.1714  -4.1687
    -4.1645  -4.1565  -4.0917  -4.0870  -4.0107  -3.9880  -3.9568  -3.9152
    -3.8816  -3.8089  -3.7747  -3.7504  -3.7211  -3.6447  -3.6236  -3.5476
    -3.5459  -3.5203  -3.4529  -3.3343  -3.2034  -3.1681  -3.0647  -3.0059
    -2.9625  -2.8779  -2.8225  -2.8159  -2.7437  -2.7424  -2.7263  -2.6010
    -2.5636  -2.5082  -2.4364  -2.4004  -2.3725  -2.3538  -2.3254  -2.2839
    -2.2783  -2.2491  -2.2124  -2.1809  -2.1765  -2.0513  -1.9940  -1.8950
    -1.7525  -1.7500  -1.7236  -1.6819  -1.6544  -1.6429  -1.5655  -1.5442
    -1.4438  -1.4345  -1.4110  -1.4001  -1.3867  -1.2852  -1.2340  -1.2241
    -1.2031  -1.1342  -1.0737  -1.0181  -0.9190  -0.7447  -0.7149  -0.7108
    -0.6477  -0.5201  -0.3726  -0.2360  -0.1736  -0.0093   0.1174   0.1325
     1.5181   1.5470   1.8317   1.8684   1.8803   1.9001   2.0677   2.0873
     2.1217   2.2381   2.3574   2.3711   2.4065   2.4255   2.4625   2.4775
     2.5255   2.5627   2.6155   2.6599   2.6662   2.6782   2.7598   2.8053
     2.8663   2.8937   2.9857   2.9942   2.9954   3.0170   3.0637   3.0809
     3.0919   3.0961   3.1039   3.1384   3.2344   3.2970   3.3001   3.3136
     3.3521   3.3825   3.4163   3.5298   3.5329   3.6697   3.8770   3.9831
     3.9937   4.0422   4.0615   4.1789   4.2519   4.4588   4.5339   4.6563
     4.9050   4.9323   5.0103   5.1259   5.2051   5.3886   5.3942   5.4206
     5.4954   5.5811   5.6274   5.6360   5.7138   5.7312   5.7364   5.7554
     5.9210   5.9600   6.0103   6.0189   6.0969   6.1414   6.2039   6.2188
     6.4734   6.6168   6.7683   6.7839   6.8801   7.1628   7.2762   7.2925
     7.9109   7.9877   8.1607   8.4063   8.7024   8.9113   8.9139   8.9543
     9.2123   9.2587   9.2851   9.3541

          k = 0.0000 0.0280 0.0000 ( 34717 PWs)   bands (ev):

   -57.8215 -57.7912 -57.5127 -57.4601 -57.3882 -57.3566 -57.2770 -57.2464
   -57.1794 -57.1488 -57.1162 -57.0855 -56.8841 -56.8145 -56.2835 -56.2530
   -34.2348 -34.1030 -34.0783 -34.0353 -34.0192 -33.9375 -33.8973 -33.8412
   -33.8221 -33.7488 -33.7371 -33.7285 -33.7192 -33.6896 -33.6740 -33.6706
   -33.6476 -33.6168 -33.6134 -33.5509 -33.5360 -33.4866 -33.4586 -33.4497
   -33.4349 -33.4245 -33.4068 -33.3802 -33.3629 -33.3607 -33.3560 -33.3434
   -33.3141 -33.3134 -33.3059 -33.2771 -33.2754 -33.1460 -33.1386 -33.0856
   -33.0449 -32.9679 -32.6789 -32.6353 -32.6128 -32.5024 -32.4231 -32.3361
   -24.2357 -20.9957 -18.1159 -17.9183 -17.7005 -17.5779 -17.4762 -17.4487
   -17.2306 -17.1906 -17.1625 -17.1215 -17.0579 -17.0073 -16.9849 -16.9082
   -16.8925 -16.8466 -16.8311 -16.8007 -16.7685 -16.7488 -16.5980 -16.5408
   -16.5200 -16.5016 -16.4524 -16.3088 -16.2951 -16.2635 -16.1347 -16.1219
   -14.8780 -14.8066  -9.7941  -7.4798  -7.4634  -5.9962  -5.4811  -5.4282
    -5.2844  -5.2738  -5.2189  -4.8809  -4.8644  -4.6137  -4.5844  -4.5167
    -4.4894  -4.4551  -4.3185  -4.2939  -4.2893  -4.2405  -4.2337  -4.1965
    -4.1593  -4.1454  -4.1097  -4.0975  -4.0800  -4.0542  -4.0105  -3.9880
    -3.9303  -3.9241  -3.8632  -3.8047  -3.7382  -3.7231  -3.7023  -3.5679
    -3.4877  -3.4722  -3.3817  -3.3134  -3.1306  -3.0834  -2.9929  -2.9586
    -2.8383  -2.8066  -2.7576  -2.7511  -2.6722  -2.6410  -2.6355  -2.6177
    -2.5709  -2.5592  -2.5211  -2.4556  -2.4154  -2.3486  -2.3235  -2.2823
    -2.2377  -2.2191  -2.2034  -2.1267  -2.0535  -2.0201  -1.9415  -1.8741
    -1.8426  -1.8206  -1.7901  -1.7747  -1.6999  -1.6749  -1.6332  -1.5998
    -1.5589  -1.4966  -1.4666  -1.4099  -1.3901  -1.3588  -1.2777  -1.2382
    -1.1919  -1.1549  -1.0686  -1.0325  -0.9488  -0.9138  -0.8465  -0.7611
    -0.7322  -0.5349  -0.4134  -0.2290  -0.2250   0.0016   0.0720   0.0969
     1.6038   1.6506   1.8609   1.8704   1.9246   2.0007   2.0455   2.1133
     2.1708   2.2663   2.3199   2.3750   2.3771   2.4402   2.4507   2.4825
     2.5163   2.5372   2.5899   2.6294   2.6826   2.7311   2.7685   2.7841
     2.8247   2.8750   2.9389   2.9554   2.9870   3.0181   3.0427   3.0711
     3.0922   3.1019   3.1872   3.2011   3.2540   3.3143   3.3461   3.3965
     3.4157   3.4667   3.5013   3.5064   3.5677   3.6365   3.8273   3.9420
     3.9902   4.0534   4.1303   4.1608   4.1837   4.4017   4.5921   4.7545
     4.9115   5.0106   5.1084   5.1883   5.2093   5.4057   5.4280   5.4787
     5.4900   5.5632   5.5966   5.6215   5.6694   5.6942   5.7327   5.8207
     5.8581   5.9304   5.9762   6.0152   6.0233   6.0270   6.1159   6.2870
     6.4530   6.5428   6.7167   6.7867   6.8086   7.0684   7.2187   7.3722
     7.6851   7.9809   8.1027   8.2897   8.4134   8.7075   8.9970   9.0251
     9.0797   9.2975   9.3588   9.4078

          k = 0.0000 0.0560 0.0000 ( 34721 PWs)   bands (ev):

   -57.8151 -57.7977 -57.5094 -57.4634 -57.3820 -57.3629 -57.2706 -57.2529
   -57.1730 -57.1552 -57.1098 -57.0920 -56.8814 -56.8171 -56.2771 -56.2594
   -34.1650 -34.0977 -34.0833 -34.0021 -33.9703 -33.9647 -33.9550 -33.8062
   -33.7757 -33.7657 -33.7524 -33.7167 -33.7067 -33.6933 -33.6756 -33.6726
   -33.5959 -33.5777 -33.5764 -33.5482 -33.5376 -33.5314 -33.4802 -33.4737
   -33.4533 -33.4396 -33.4081 -33.3821 -33.3758 -33.3612 -33.3584 -33.3542
   -33.3410 -33.3266 -33.3048 -33.3027 -33.2679 -33.1453 -33.1349 -33.0869
   -33.0584 -33.0355 -32.6306 -32.6176 -32.6081 -32.4859 -32.4400 -32.4102
   -24.2356 -20.9955 -17.9445 -17.7582 -17.5607 -17.4488 -17.4288 -17.4233
   -17.3206 -17.2931 -17.1815 -17.0801 -17.0797 -17.0468 -17.0234 -16.9825
   -16.8638 -16.8596 -16.8522 -16.8150 -16.7525 -16.6871 -16.6619 -16.6182
   -16.5332 -16.4738 -16.4477 -16.3321 -16.3225 -16.2825 -16.2468 -16.1843
   -14.8956 -14.8569  -9.7939  -7.4826  -7.4631  -5.9944  -5.2385  -5.1928
    -5.0771  -5.0445  -5.0103  -4.7380  -4.6652  -4.6282  -4.5530  -4.5434
    -4.5153  -4.4993  -4.4698  -4.3921  -4.3599  -4.3525  -4.3291  -4.3247
    -4.2579  -4.2202  -4.1994  -4.1491  -4.1353  -4.0952  -4.0697  -4.0185
    -3.9564  -3.9287  -3.8585  -3.7833  -3.7271  -3.6052  -3.5773  -3.4835
    -3.4213  -3.3879  -3.3671  -3.2706  -3.1750  -3.0260  -2.9780  -2.9648
    -2.9485  -2.8814  -2.7887  -2.7371  -2.6875  -2.6529  -2.6085  -2.4706
    -2.4561  -2.4492  -2.4158  -2.3932  -2.3401  -2.3044  -2.2817  -2.2771
    -2.2053  -2.1822  -2.1009  -2.0703  -2.0476  -2.0384  -2.0118  -1.9898
    -1.9421  -1.9042  -1.8680  -1.7923  -1.7168  -1.6843  -1.6706  -1.6577
    -1.6417  -1.5730  -1.5193  -1.5032  -1.4833  -1.4444  -1.3736  -1.3583
    -1.2825  -1.2418  -1.1683  -1.1429  -1.0648  -1.0000  -0.9295  -0.8968
    -0.7996  -0.7155  -0.5971  -0.3940  -0.0440   0.0121   0.0430   0.0461
     1.7405   1.8850   1.9030   1.9826   2.0128   2.0558   2.1338   2.1996
     2.2198   2.2566   2.2612   2.2745   2.3026   2.3546   2.3776   2.5101
     2.5215   2.5547   2.6420   2.6518   2.6771   2.7360   2.7533   2.7988
     2.8037   2.8261   2.8466   2.9399   2.9600   3.0100   3.0838   3.0937
     3.1100   3.1712   3.1936   3.2199   3.3235   3.3668   3.4079   3.4593
     3.4858   3.5547   3.6134   3.6651   3.6858   3.7203   3.7409   3.8474
     3.9815   3.9947   4.0104   4.0969   4.2368   4.3238   4.7173   4.8431
     5.0291   5.1634   5.2517   5.2998   5.3298   5.3971   5.4035   5.4758
     5.5233   5.5968   5.6098   5.6185   5.6423   5.6914   5.7262   5.7377
     5.7540   5.7920   5.8297   5.8949   5.9789   6.0225   6.1908   6.2993
     6.3705   6.4070   6.6413   6.6482   6.7417   6.9078   7.0164   7.2646
     7.5000   7.6705   7.7750   8.2691   8.4223   8.6006   8.8927   9.0365
     9.1971   9.3501   9.4463   9.5766

          k = 0.0000-0.0840 0.0000 ( 34678 PWs)   bands (ev):

   -57.8064 -57.8064 -57.5076 -57.4653 -57.3761 -57.3688 -57.2618 -57.2617
   -57.1655 -57.1627 -57.1019 -57.0998 -56.8801 -56.8185 -56.2683 -56.2683
   -34.0905 -34.0905 -34.0684 -34.0684 -33.9786 -33.9786 -33.8819 -33.8491
   -33.7892 -33.7709 -33.7187 -33.7118 -33.6963 -33.6790 -33.6719 -33.6604
   -33.5786 -33.5784 -33.5728 -33.5658 -33.5037 -33.5033 -33.4818 -33.4794
   -33.4572 -33.4494 -33.4464 -33.4461 -33.3857 -33.3834 -33.3569 -33.3539
   -33.3448 -33.3426 -33.2983 -33.2964 -33.2008 -33.1674 -33.1420 -33.0916
   -33.0868 -33.0552 -32.6240 -32.6240 -32.5101 -32.5101 -32.4629 -32.4629
   -24.2356 -20.9954 -17.7065 -17.6948 -17.5376 -17.5369 -17.4219 -17.4032
   -17.2482 -17.2419 -17.1804 -17.1798 -17.1455 -17.1422 -16.9662 -16.9661
   -16.9428 -16.9387 -16.7767 -16.7485 -16.7215 -16.7183 -16.6466 -16.6397
   -16.5535 -16.5086 -16.3798 -16.3782 -16.3336 -16.3322 -16.2526 -16.2512
   -14.8937 -14.8937  -9.7938  -7.4840  -7.4629  -5.9935  -4.9273  -4.9244
    -4.8596  -4.8595  -4.8076  -4.7927  -4.7664  -4.7597  -4.7230  -4.7012
    -4.5299  -4.5114  -4.4974  -4.4951  -4.4258  -4.4243  -4.4198  -4.4171
    -4.2617  -4.2228  -4.1599  -4.1586  -4.1465  -4.1243  -4.0113  -3.9552
    -3.9544  -3.9184  -3.8429  -3.7999  -3.6567  -3.6173  -3.4652  -3.4538
    -3.3018  -3.2922  -3.2326  -3.1548  -3.1353  -3.1060  -2.9715  -2.9562
    -2.9472  -2.8863  -2.8616  -2.8218  -2.7167  -2.6907  -2.6698  -2.6522
    -2.6271  -2.6186  -2.5754  -2.4580  -2.4506  -2.4220  -2.1612  -2.1262
    -2.1035  -2.0563  -2.0166  -1.9848  -1.9364  -1.9359  -1.9299  -1.8811
    -1.8722  -1.8680  -1.8499  -1.7936  -1.7791  -1.7135  -1.6331  -1.6325
    -1.5932  -1.5755  -1.5587  -1.5573  -1.5493  -1.5450  -1.5250  -1.4187
    -1.3765  -1.2667  -1.2536  -1.2251  -1.1311  -1.1254  -1.1018  -1.0964
    -0.6860  -0.6364  -0.5987  -0.5935   0.0118   0.0121   0.0489   0.0492
     1.9057   1.9094   2.0069   2.0098   2.0981   2.0983   2.1028   2.1247
     2.2203   2.2204   2.2250   2.2405   2.3383   2.3795   2.4288   2.4313
     2.5225   2.5272   2.5914   2.5920   2.6689   2.7471   2.7591   2.8208
     2.8283   2.8624   2.9022   2.9447   2.9719   2.9920   3.0497   3.0666
     3.0768   3.2084   3.2517   3.3215   3.3283   3.3298   3.3310   3.4723
     3.6153   3.6181   3.6852   3.6987   3.7262   3.7856   3.7871   3.8673
     3.9209   3.9233   3.9868   3.9872   4.1295   4.4113   4.7914   4.8159
     5.1500   5.1683   5.2860   5.3231   5.3813   5.3813   5.4910   5.5170
     5.5510   5.5680   5.5811   5.6390   5.6570   5.6947   5.7035   5.7040
     5.7477   5.8283   5.8362   5.8536   5.9985   6.0004   6.0362   6.0808
     6.4160   6.4206   6.5517   6.5865   6.8546   6.8592   6.9694   6.9762
     7.4556   7.4979   7.6273   8.1937   8.3332   8.6533   9.0403   9.1218
     9.3652   9.4267   9.6102   9.6606

          k = 0.0253 0.0000 0.0000 ( 34707 PWs)   bands (ev):

   -57.8238 -57.7889 -57.5142 -57.4586 -57.3905 -57.3543 -57.2794 -57.2440
   -57.1818 -57.1464 -57.1185 -57.0831 -56.8853 -56.8132 -56.2859 -56.2506
   -34.2605 -34.1050 -34.0765 -34.0611 -34.0247 -33.9311 -33.8704 -33.8669
   -33.8285 -33.7743 -33.7341 -33.7238 -33.7195 -33.6900 -33.6808 -33.6733
   -33.6504 -33.6269 -33.6181 -33.5523 -33.5276 -33.4615 -33.4606 -33.4397
   -33.4331 -33.4306 -33.3886 -33.3877 -33.3797 -33.3672 -33.3560 -33.3370
   -33.3144 -33.3083 -33.2809 -33.2753 -33.2499 -33.1476 -33.1418 -33.0851
   -33.0406 -32.9398 -32.7045 -32.6381 -32.6105 -32.5085 -32.4168 -32.3087
   -24.2357 -20.9957 -18.1493 -17.9348 -17.7130 -17.5934 -17.4965 -17.4922
   -17.2708 -17.2325 -17.1469 -17.0628 -17.0548 -17.0467 -17.0196 -16.9628
   -16.9177 -16.8991 -16.8220 -16.7902 -16.7052 -16.6099 -16.6082 -16.5231
   -16.5191 -16.5165 -16.4657 -16.3131 -16.2677 -16.2466 -16.1088 -16.0795
   -14.8670 -14.7832  -9.7935  -7.4785  -7.4633  -5.9967  -5.5392  -5.3964
    -5.2527  -5.2401  -5.1887  -4.9907  -4.9381  -4.7828  -4.5819  -4.5691
    -4.5173  -4.4944  -4.4460  -4.4385  -4.3357  -4.2000  -4.1893  -4.1697
    -4.0934  -4.0767  -4.0712  -3.9879  -3.9711  -3.9378  -3.8776  -3.8424
    -3.8351  -3.8127  -3.7754  -3.7314  -3.7028  -3.6218  -3.5819  -3.4925
    -3.4629  -3.4253  -3.3373  -3.2617  -3.2191  -3.1580  -3.1384  -3.0401
    -3.0219  -2.9250  -2.8927  -2.8109  -2.7591  -2.7255  -2.7032  -2.6770
    -2.6526  -2.6126  -2.5031  -2.4965  -2.4515  -2.3777  -2.3615  -2.3175
    -2.2547  -2.2180  -2.2145  -2.1300  -2.0997  -2.0322  -1.9379  -1.8973
    -1.8034  -1.7788  -1.7542  -1.7279  -1.7055  -1.6363  -1.6113  -1.4973
    -1.4870  -1.4768  -1.4333  -1.4087  -1.3660  -1.3417  -1.2737  -1.2571
    -1.2321  -1.1193  -1.0973  -0.9963  -0.9615  -0.9002  -0.8123  -0.7732
    -0.6935  -0.5642  -0.3670  -0.2635  -0.2039  -0.0234   0.0749   0.0758
     1.5354   1.6024   1.8795   1.8983   1.9921   2.0085   2.0562   2.1348
     2.2161   2.2453   2.3152   2.3240   2.3676   2.4169   2.4350   2.4506
     2.4647   2.5350   2.5456   2.6060   2.6695   2.6775   2.7093   2.8279
     2.8431   2.8987   2.9959   3.0021   3.0102   3.0767   3.0871   3.0967
     3.1472   3.1877   3.2049   3.2391   3.2936   3.3170   3.3330   3.3854
     3.3933   3.4326   3.4638   3.4952   3.5924   3.6154   3.8076   3.8927
     4.0365   4.0618   4.0758   4.1691   4.2368   4.4121   4.6396   4.6822
     4.7675   4.9270   4.9406   4.9902   5.0107   5.0501   5.2182   5.4941
     5.5670   5.6365   5.7287   5.7386   5.7896   5.8321   5.9414   5.9519
     5.9780   6.0359   6.0391   6.0710   6.1344   6.1491   6.2450   6.3155
     6.4877   6.6318   6.7403   6.7760   6.8841   7.0760   7.1626   7.3206
     7.6193   8.0345   8.1529   8.3445   8.4009   8.7531   8.8282   8.9233
     8.9684   9.2479   9.2916   9.4219

          k = 0.0253 0.0280 0.0000 ( 34687 PWs)   bands (ev):

   -57.8215 -57.7912 -57.5127 -57.4601 -57.3882 -57.3566 -57.2770 -57.2464
   -57.1794 -57.1488 -57.1162 -57.0855 -56.8841 -56.8145 -56.2835 -56.2530
   -34.2351 -34.1030 -34.0783 -34.0353 -34.0185 -33.9374 -33.8974 -33.8418
   -33.8222 -33.7501 -33.7371 -33.7282 -33.7181 -33.6900 -33.6774 -33.6740
   -33.6480 -33.6117 -33.6079 -33.5455 -33.5361 -33.4867 -33.4585 -33.4484
   -33.4348 -33.4246 -33.4077 -33.3833 -33.3651 -33.3625 -33.3555 -33.3434
   -33.3142 -33.3134 -33.3059 -33.2770 -33.2754 -33.1469 -33.1387 -33.0857
   -33.0449 -32.9679 -32.6788 -32.6362 -32.6123 -32.5025 -32.4231 -32.3360
   -24.2357 -20.9956 -18.0891 -17.8778 -17.6616 -17.5415 -17.4756 -17.4435
   -17.2550 -17.2330 -17.2064 -17.0851 -17.0612 -17.0426 -16.9908 -16.9545
   -16.9262 -16.8614 -16.8408 -16.8226 -16.7494 -16.6608 -16.6302 -16.5442
   -16.5095 -16.4991 -16.4826 -16.3085 -16.2859 -16.2640 -16.1344 -16.1222
   -14.8769 -14.8066  -9.7934  -7.4799  -7.4632  -5.9957  -5.4547  -5.3116
    -5.1729  -5.1611  -5.1106  -4.8757  -4.8627  -4.7293  -4.5708  -4.5226
    -4.4762  -4.4461  -4.4157  -4.3566  -4.3235  -4.2865  -4.2249  -4.1962
    -4.1559  -4.1230  -4.0916  -4.0738  -4.0338  -3.9738  -3.9619  -3.9299
    -3.9143  -3.8573  -3.8457  -3.7578  -3.7375  -3.6823  -3.6770  -3.4822
    -3.4544  -3.3895  -3.3398  -3.2812  -3.1647  -3.1063  -3.0695  -2.9355
    -2.8522  -2.8353  -2.8018  -2.7890  -2.7519  -2.6777  -2.6331  -2.6146
    -2.5908  -2.5760  -2.5490  -2.5177  -2.4570  -2.4009  -2.3529  -2.3271
    -2.2661  -2.2479  -2.1956  -2.1054  -2.0637  -2.0340  -1.9938  -1.9086
    -1.8784  -1.8523  -1.7899  -1.7642  -1.7398  -1.7195  -1.6638  -1.6247
    -1.5682  -1.5104  -1.4825  -1.4645  -1.4180  -1.3776  -1.3264  -1.2325
    -1.2070  -1.2010  -1.0559  -0.9977  -0.9772  -0.9093  -0.8883  -0.8703
    -0.7845  -0.5741  -0.4245  -0.2818  -0.2189   0.0061   0.0479   0.0569
     1.5969   1.7235   1.8921   1.9031   2.0190   2.0355   2.1361   2.1712
     2.2330   2.2777   2.3146   2.3287   2.3782   2.3918   2.4083   2.4280
     2.5075   2.5410   2.5779   2.6108   2.6287   2.6761   2.7766   2.8076
     2.8457   2.8898   2.9757   2.9856   2.9940   2.9993   3.0530   3.0907
     3.1668   3.2233   3.2618   3.2680   3.2993   3.3222   3.3748   3.4281
     3.4582   3.4881   3.5158   3.5320   3.5811   3.6286   3.7627   3.8849
     4.0175   4.0466   4.0937   4.1673   4.2207   4.3615   4.6838   4.7686
     4.8197   4.9384   4.9846   5.0286   5.0382   5.1183   5.2718   5.5237
     5.5623   5.5969   5.6444   5.7252   5.7388   5.8200   5.8788   5.9229
     5.9546   5.9966   6.0237   6.0336   6.0496   6.0864   6.2954   6.3135
     6.4720   6.5505   6.7360   6.7692   6.8139   7.0584   7.1115   7.3519
     7.5409   8.0136   8.1404   8.2315   8.3190   8.5241   8.5770   8.8331
     9.0203   9.2765   9.3974   9.4751

          k = 0.0253 0.0560 0.0000 ( 34699 PWs)   bands (ev):

   -57.8151 -57.7977 -57.5094 -57.4634 -57.3820 -57.3628 -57.2706 -57.2529
   -57.1730 -57.1552 -57.1098 -57.0920 -56.8814 -56.8171 -56.2771 -56.2594
   -34.1653 -34.0977 -34.0834 -34.0016 -33.9704 -33.9647 -33.9548 -33.8062
   -33.7760 -33.7659 -33.7525 -33.7159 -33.7067 -33.6936 -33.6771 -33.6739
   -33.5948 -33.5782 -33.5763 -33.5447 -33.5374 -33.5270 -33.4809 -33.4706
   -33.4532 -33.4396 -33.4081 -33.3822 -33.3777 -33.3617 -33.3612 -33.3553
   -33.3411 -33.3272 -33.3048 -33.3026 -33.2678 -33.1459 -33.1350 -33.0872
   -33.0584 -33.0354 -32.6312 -32.6173 -32.6080 -32.4859 -32.4400 -32.4102
   -24.2356 -20.9955 -17.9220 -17.7211 -17.5279 -17.4426 -17.4204 -17.3995
   -17.3117 -17.2957 -17.1852 -17.1228 -17.0851 -17.0327 -17.0078 -16.9901
   -16.9004 -16.8918 -16.8550 -16.8085 -16.7721 -16.7350 -16.6832 -16.5912
   -16.5762 -16.4684 -16.4333 -16.3254 -16.3201 -16.2835 -16.2476 -16.1839
   -14.8949 -14.8571  -9.7931  -7.4827  -7.4629  -5.9940  -5.2236  -5.0771
    -4.9639  -4.9353  -4.9044  -4.7323  -4.6645  -4.6478  -4.5314  -4.5242
    -4.5043  -4.4956  -4.3939  -4.3547  -4.3489  -4.3177  -4.2874  -4.2706
    -4.2264  -4.2116  -4.1918  -4.1564  -4.0888  -4.0739  -4.0627  -4.0080
    -3.9724  -3.9162  -3.8470  -3.8090  -3.7254  -3.6319  -3.5442  -3.4736
    -3.4333  -3.4149  -3.3777  -3.2051  -3.1724  -3.0405  -2.9924  -2.9727
    -2.9451  -2.8727  -2.8013  -2.7670  -2.7117  -2.6715  -2.6325  -2.5831
    -2.5587  -2.5166  -2.4712  -2.4554  -2.4138  -2.3984  -2.3173  -2.2731
    -2.2579  -2.2288  -2.1730  -2.1361  -2.0913  -2.0776  -2.0137  -1.9998
    -1.9481  -1.9262  -1.8736  -1.8371  -1.8210  -1.7789  -1.7251  -1.6936
    -1.6650  -1.5879  -1.5665  -1.4941  -1.4704  -1.4193  -1.3820  -1.3445
    -1.2585  -1.2308  -1.1602  -1.0957  -1.0698  -0.9701  -0.9449  -0.8746
    -0.8210  -0.7360  -0.6026  -0.4056  -0.0427  -0.0019   0.0232   0.0463
     1.7368   1.9110   1.9278   2.0505   2.0564   2.0793   2.1651   2.1767
     2.2516   2.2693   2.2917   2.3059   2.3494   2.3951   2.4250   2.5086
     2.5564   2.5797   2.6462   2.6561   2.6732   2.6829   2.7484   2.7846
     2.8059   2.8212   2.8699   2.8802   2.9887   3.0612   3.1207   3.1427
     3.1989   3.2096   3.2416   3.2714   3.3228   3.3648   3.4192   3.4380
     3.5091   3.5355   3.6359   3.6631   3.6961   3.7331   3.7547   3.8209
     3.9374   3.9759   4.0123   4.1370   4.2067   4.3665   4.7756   4.8474
     4.9896   5.0247   5.0995   5.1182   5.1387   5.2227   5.3263   5.4291
     5.4522   5.5084   5.5947   5.6268   5.7167   5.7295   5.7934   5.8205
     5.8785   5.9065   5.9498   6.0128   6.0497   6.2207   6.2476   6.3611
     6.4056   6.4442   6.6514   6.6548   6.7735   6.9053   7.0423   7.2875
     7.3725   7.7227   7.8366   8.1116   8.3680   8.5584   8.6318   8.9003
     9.0262   9.0669   9.2834   9.3867

          k = 0.0253-0.0840 0.0000 ( 34722 PWs)   bands (ev):

   -57.8064 -57.8064 -57.5076 -57.4653 -57.3761 -57.3688 -57.2618 -57.2617
   -57.1655 -57.1628 -57.1019 -57.0998 -56.8801 -56.8185 -56.2683 -56.2683
   -34.0905 -34.0905 -34.0687 -34.0687 -33.9783 -33.9783 -33.8821 -33.8492
   -33.7892 -33.7708 -33.7188 -33.7116 -33.6964 -33.6789 -33.6722 -33.6607
   -33.5803 -33.5802 -33.5719 -33.5650 -33.5011 -33.5009 -33.4801 -33.4779
   -33.4559 -33.4483 -33.4464 -33.4460 -33.3857 -33.3834 -33.3595 -33.3564
   -33.3462 -33.3441 -33.2983 -33.2964 -33.2008 -33.1675 -33.1425 -33.0915
   -33.0873 -33.0552 -32.6243 -32.6243 -32.5102 -32.5101 -32.4629 -32.4629
   -24.2356 -20.9954 -17.6924 -17.6793 -17.5095 -17.5088 -17.4064 -17.3884
   -17.2329 -17.2203 -17.1763 -17.1747 -17.1299 -17.1274 -17.0126 -17.0115
   -16.9262 -16.9226 -16.8120 -16.7923 -16.7548 -16.7529 -16.6795 -16.6729
   -16.5384 -16.4984 -16.3714 -16.3702 -16.3328 -16.3310 -16.2527 -16.2511
   -14.8936 -14.8936  -9.7930  -7.4841  -7.4628  -5.9932  -4.9272  -4.9246
    -4.7629  -4.7628  -4.7208  -4.7004  -4.6911  -4.6888  -4.6356  -4.6001
    -4.5026  -4.4875  -4.4557  -4.4493  -4.4115  -4.4064  -4.3730  -4.3695
    -4.2376  -4.2006  -4.1508  -4.1499  -4.1257  -4.1059  -4.0333  -3.9954
    -3.9903  -3.9227  -3.8462  -3.7909  -3.5694  -3.5639  -3.4703  -3.4488
    -3.2936  -3.2493  -3.2226  -3.2133  -3.1886  -3.1747  -3.0851  -3.0715
    -2.9721  -2.9678  -2.9411  -2.8628  -2.7490  -2.7411  -2.7199  -2.7153
    -2.6632  -2.6130  -2.5036  -2.4947  -2.4468  -2.3970  -2.2524  -2.1922
    -2.1877  -2.1611  -2.0647  -2.0536  -2.0205  -2.0070  -1.9852  -1.9829
    -1.9570  -1.9394  -1.9060  -1.8938  -1.8057  -1.7954  -1.7632  -1.7408
    -1.7313  -1.5936  -1.5451  -1.5143  -1.4179  -1.4134  -1.4021  -1.3411
    -1.3055  -1.2461  -1.2083  -1.1980  -1.1829  -1.1403  -1.0339  -1.0286
    -0.7058  -0.6475  -0.5981  -0.5931  -0.0143  -0.0141   0.0597   0.0601
     1.9172   1.9210   2.0069   2.0141   2.0982   2.1048   2.1169   2.1192
     2.2708   2.2765   2.3099   2.3104   2.4043   2.4274   2.4422   2.4451
     2.5714   2.5752   2.6503   2.6669   2.6706   2.7209   2.7364   2.7688
     2.7741   2.8650   2.8901   2.9352   2.9799   3.0449   3.0794   3.1165
     3.1401   3.2398   3.2904   3.3181   3.3199   3.3551   3.3559   3.4673
     3.5977   3.6073   3.6765   3.7098   3.7326   3.7747   3.7810   3.8335
     3.9292   3.9337   3.9785   3.9785   4.1729   4.4487   4.8156   4.8398
     5.1389   5.1501   5.1809   5.1856   5.2110   5.2235   5.2725   5.2914
     5.3575   5.3762   5.5769   5.5907   5.7201   5.7255   5.8055   5.8651
     5.8886   5.9291   5.9727   5.9996   6.1034   6.1216   6.1576   6.1692
     6.4459   6.4508   6.5685   6.6031   6.8839   6.8858   7.0121   7.0224
     7.4369   7.5545   7.6641   8.0418   8.3240   8.3925   8.8635   9.0453
     9.1984   9.2030   9.2670   9.4973

          k = 0.0506 0.0000 0.0000 ( 34729 PWs)   bands (ev):

   -57.8238 -57.7889 -57.5142 -57.4585 -57.3905 -57.3543 -57.2793 -57.2440
   -57.1818 -57.1464 -57.1185 -57.0831 -56.8853 -56.8132 -56.2859 -56.2506
   -34.2612 -34.1049 -34.0765 -34.0613 -34.0233 -33.9312 -33.8704 -33.8682
   -33.8285 -33.7771 -33.7337 -33.7236 -33.7194 -33.6949 -33.6865 -33.6740
   -33.6504 -33.6145 -33.6103 -33.5397 -33.5285 -33.4615 -33.4603 -33.4389
   -33.4331 -33.4309 -33.3949 -33.3875 -33.3803 -33.3795 -33.3528 -33.3371
   -33.3143 -33.3080 -33.2812 -33.2753 -33.2500 -33.1501 -33.1418 -33.0850
   -33.0406 -32.9399 -32.7043 -32.6403 -32.6093 -32.5085 -32.4169 -32.3087
   -24.2357 -20.9955 -18.0873 -17.8346 -17.6159 -17.5292 -17.4959 -17.4505
[...]
    -2.6751  -2.6309  -2.6232  -2.6159  -2.5834  -2.5414  -2.5052  -2.4886
    -2.4879  -2.4249  -2.3847  -2.3720  -2.3344  -2.3036  -2.2588  -2.2585
    -2.2339  -2.1471  -2.1423  -2.1408  -2.0144  -1.9768  -1.8253  -1.7970
    -1.7361  -1.6880  -1.4341  -1.3886  -1.3245  -1.3233  -1.1670  -1.1530
    -1.1460  -1.1443  -1.1191  -1.0879  -1.0424  -0.9074  -0.8906  -0.7598
    -0.7480  -0.7331  -0.6661  -0.6652  -0.0637  -0.0637   0.0739   0.0742
     1.9870   2.0011   2.0437   2.0503   2.0733   2.0760   2.0875   2.0910
     2.3565   2.3688   2.3746   2.3882   2.4514   2.4575   2.5233   2.5383
     2.5591   2.5596   2.6154   2.7164   2.7266   2.8368   2.8495   2.8670
     2.8780   2.9550   3.0296   3.1038   3.1104   3.1631   3.1933   3.2578
     3.2816   3.2950   3.3340   3.3621   3.3956   3.3988   3.4416   3.4754
     3.5585   3.5817   3.6819   3.7282   3.7925   3.8148   3.8170   3.8177
     3.9486   3.9536   3.9732   3.9732   4.2913   4.5498   4.6595   4.6599
     4.7155   4.7375   4.7750   4.7830   4.7846   4.8076   5.0766   5.1059
     5.2292   5.2616   5.6204   5.6348   5.8104   5.8246   5.9404   6.0454
     6.1653   6.2083   6.2147   6.2450   6.4027   6.4152   6.4750   6.5306
     6.5322   6.5444   6.7082   6.7090   6.7640   6.7655   7.0309   7.0865
     7.6430   7.6751   7.8023   7.8136   8.0415   8.0933   8.3302   8.4008
     8.5419   8.6084   8.6864   9.1774

          k =-0.0253 0.0280 0.0000 ( 34687 PWs)   bands (ev):

   -57.8215 -57.7913 -57.5127 -57.4601 -57.3882 -57.3567 -57.2771 -57.2465
   -57.1794 -57.1488 -57.1162 -57.0856 -56.8842 -56.8146 -56.2837 -56.2531
   -34.2351 -34.1030 -34.0783 -34.0354 -34.0185 -33.9375 -33.8974 -33.8418
   -33.8222 -33.7501 -33.7371 -33.7283 -33.7181 -33.6901 -33.6775 -33.6740
   -33.6480 -33.6117 -33.6079 -33.5455 -33.5362 -33.4868 -33.4586 -33.4484
   -33.4349 -33.4246 -33.4077 -33.3834 -33.3651 -33.3626 -33.3555 -33.3434
   -33.3142 -33.3135 -33.3059 -33.2771 -33.2754 -33.1470 -33.1388 -33.0858
   -33.0450 -32.9681 -32.6790 -32.6364 -32.6124 -32.5026 -32.4232 -32.3362
   -24.2357 -20.9956 -18.0890 -17.8778 -17.6615 -17.5415 -17.4756 -17.4433
   -17.2551 -17.2333 -17.2064 -17.0851 -17.0614 -17.0426 -16.9913 -16.9545
   -16.9262 -16.8613 -16.8408 -16.8222 -16.7484 -16.6608 -16.6304 -16.5443
   -16.5095 -16.4988 -16.4826 -16.3084 -16.2859 -16.2639 -16.1342 -16.1222
   -14.8766 -14.8063  -9.7934  -7.4799  -7.4631  -5.9957  -5.4546  -5.3116
    -5.1726  -5.1607  -5.1106  -4.8759  -4.8628  -4.7301  -4.5697  -4.5230
    -4.4761  -4.4461  -4.4162  -4.3565  -4.3238  -4.2864  -4.2272  -4.1959
    -4.1562  -4.1234  -4.0918  -4.0738  -4.0329  -3.9739  -3.9615  -3.9307
    -3.9137  -3.8572  -3.8471  -3.7577  -3.7377  -3.6825  -3.6761  -3.4806
    -3.4531  -3.3871  -3.3380  -3.2824  -3.1640  -3.1064  -3.0695  -2.9371
    -2.8515  -2.8349  -2.8012  -2.7891  -2.7525  -2.6773  -2.6327  -2.6122
    -2.5939  -2.5752  -2.5491  -2.5175  -2.4586  -2.4009  -2.3509  -2.3282
    -2.2644  -2.2477  -2.1967  -2.1081  -2.0637  -2.0335  -1.9934  -1.9137
    -1.8754  -1.8547  -1.7930  -1.7630  -1.7408  -1.7181  -1.6636  -1.6250
    -1.5649  -1.5078  -1.4825  -1.4623  -1.4192  -1.3785  -1.3284  -1.2327
    -1.2096  -1.2019  -1.0559  -0.9952  -0.9743  -0.9116  -0.8880  -0.8671
    -0.7850  -0.5743  -0.4244  -0.2818  -0.2187   0.0063   0.0482   0.0572
     1.5969   1.7235   1.8920   1.9035   2.0189   2.0375   2.1367   2.1731
     2.2355   2.2766   2.3132   2.3245   2.3795   2.3927   2.4082   2.4306
     2.5064   2.5407   2.5769   2.6075   2.6300   2.6779   2.7717   2.8081
     2.8483   2.8898   2.9747   2.9842   2.9929   2.9980   3.0536   3.0890
     3.1693   3.2261   3.2620   3.2684   3.2996   3.3222   3.3742   3.4226
     3.4610   3.4909   3.5157   3.5321   3.5798   3.6280   3.7633   3.8865
     4.0180   4.0466   4.0910   4.1672   4.2202   4.3614   4.6837   4.7655
     4.8216   4.9377   4.9833   5.0280   5.0386   5.1161   5.2694   5.5233
     5.5613   5.5974   5.6447   5.7249   5.7388   5.8185   5.8848   5.9249
     5.9535   5.9958   6.0228   6.0337   6.0499   6.0859   6.2953   6.3136
     6.4737   6.5507   6.7357   6.7693   6.8139   7.0588   7.1294   7.3464
     7.5374   8.0136   8.1457   8.2216   8.3156   8.5237   8.5724   8.8352
     9.0222   9.2727   9.4056   9.4700

          k =-0.0253 0.0560 0.0000 ( 34699 PWs)   bands (ev):

   -57.8151 -57.7977 -57.5095 -57.4635 -57.3821 -57.3629 -57.2706 -57.2530
   -57.1731 -57.1552 -57.1098 -57.0920 -56.8816 -56.8172 -56.2773 -56.2596
   -34.1653 -34.0977 -34.0834 -34.0016 -33.9704 -33.9648 -33.9548 -33.8062
   -33.7760 -33.7660 -33.7525 -33.7160 -33.7067 -33.6936 -33.6772 -33.6739
   -33.5946 -33.5782 -33.5766 -33.5447 -33.5374 -33.5271 -33.4810 -33.4706
   -33.4533 -33.4397 -33.4082 -33.3823 -33.3777 -33.3617 -33.3612 -33.3554
   -33.3412 -33.3272 -33.3049 -33.3027 -33.2679 -33.1460 -33.1352 -33.0874
   -33.0585 -33.0356 -32.6314 -32.6175 -32.6082 -32.4861 -32.4402 -32.4104
   -24.2356 -20.9955 -17.9219 -17.7211 -17.5278 -17.4427 -17.4204 -17.3995
   -17.3112 -17.2958 -17.1852 -17.1228 -17.0856 -17.0326 -17.0078 -16.9917
   -16.9004 -16.8917 -16.8540 -16.8064 -16.7726 -16.7349 -16.6838 -16.5909
   -16.5762 -16.4683 -16.4333 -16.3253 -16.3200 -16.2834 -16.2476 -16.1838
   -14.8946 -14.8567  -9.7931  -7.4827  -7.4629  -5.9940  -5.2235  -5.0771
    -4.9628  -4.9348  -4.9044  -4.7318  -4.6648  -4.6488  -4.5322  -4.5264
    -4.5032  -4.4951  -4.3960  -4.3557  -4.3486  -4.3176  -4.2853  -4.2703
    -4.2265  -4.2122  -4.1911  -4.1569  -4.0886  -4.0756  -4.0630  -4.0089
    -3.9729  -3.9163  -3.8473  -3.8082  -3.7253  -3.6307  -3.5454  -3.4698
    -3.4320  -3.4128  -3.3752  -3.2065  -3.1743  -3.0394  -2.9924  -2.9723
    -2.9442  -2.8740  -2.7995  -2.7667  -2.7124  -2.6715  -2.6329  -2.5821
    -2.5584  -2.5163  -2.4715  -2.4561  -2.4131  -2.3993  -2.3178  -2.2742
    -2.2583  -2.2299  -2.1734  -2.1374  -2.0907  -2.0799  -2.0118  -1.9990
    -1.9508  -1.9284  -1.8765  -1.8379  -1.8190  -1.7787  -1.7228  -1.6953
    -1.6623  -1.5871  -1.5662  -1.4908  -1.4694  -1.4232  -1.3828  -1.3433
    -1.2589  -1.2304  -1.1587  -1.0952  -1.0694  -0.9699  -0.9443  -0.8757
    -0.8212  -0.7352  -0.6024  -0.4058  -0.0425  -0.0017   0.0235   0.0465
     1.7367   1.9118   1.9278   2.0505   2.0559   2.0815   2.1677   2.1771
     2.2512   2.2685   2.2914   2.3064   2.3504   2.3950   2.4246   2.5060
     2.5585   2.5779   2.6428   2.6541   2.6716   2.6860   2.7504   2.7842
     2.8049   2.8206   2.8713   2.8796   2.9887   3.0558   3.1221   3.1418
     3.1992   3.2113   3.2431   3.2744   3.3238   3.3632   3.4156   3.4379
     3.5113   3.5352   3.6353   3.6638   3.6982   3.7329   3.7543   3.8201
     3.9374   3.9759   4.0118   4.1362   4.2065   4.3663   4.7757   4.8460
     4.9892   5.0246   5.0985   5.1159   5.1394   5.2225   5.3259   5.4277
     5.4484   5.5059   5.5952   5.6264   5.7171   5.7301   5.7930   5.8232
     5.8786   5.9058   5.9502   6.0130   6.0500   6.2210   6.2476   6.3601
     6.4084   6.4463   6.6500   6.6548   6.7821   6.9065   7.0487   7.2875
     7.3793   7.7168   7.8373   8.0884   8.3664   8.5588   8.6335   8.9042
     9.0243   9.0615   9.2970   9.3907

          k =-0.0506 0.0280 0.0000 ( 34685 PWs)   bands (ev):

   -57.8215 -57.7913 -57.5127 -57.4601 -57.3882 -57.3567 -57.2770 -57.2465
   -57.1795 -57.1488 -57.1163 -57.0856 -56.8842 -56.8146 -56.2837 -56.2531
   -34.2358 -34.1030 -34.0783 -34.0356 -34.0171 -33.9374 -33.8974 -33.8431
   -33.8222 -33.7528 -33.7372 -33.7280 -33.7172 -33.6916 -33.6845 -33.6740
   -33.6488 -33.6083 -33.5944 -33.5366 -33.5334 -33.4870 -33.4584 -33.4460
   -33.4349 -33.4248 -33.4107 -33.3899 -33.3744 -33.3619 -33.3540 -33.3435
   -33.3143 -33.3137 -33.3060 -33.2770 -33.2753 -33.1491 -33.1389 -33.0860
   -33.0450 -32.9681 -32.6788 -32.6382 -32.6115 -32.5026 -32.4232 -32.3362
   -24.2356 -20.9955 -18.0304 -17.7791 -17.5684 -17.4785 -17.4740 -17.4003
   -17.3413 -17.2574 -17.2422 -17.1120 -17.0911 -17.0639 -17.0604 -17.0014
   -16.9825 -16.9687 -16.8707 -16.7622 -16.7192 -16.6716 -16.5871 -16.5703
   -16.5344 -16.4917 -16.4617 -16.3073 -16.2745 -16.2650 -16.1341 -16.1231
   -14.8746 -14.8063  -9.7919  -7.4802  -7.4628  -5.9949  -5.4382  -5.0180
    -4.9448  -4.9333  -4.8636  -4.8399  -4.8199  -4.7790  -4.6421  -4.5802
    -4.5633  -4.5100  -4.4518  -4.3601  -4.3128  -4.2274  -4.1759  -4.1562
    -4.1367  -4.1273  -4.0551  -4.0115  -3.9787  -3.9510  -3.9101  -3.8851
    -3.8642  -3.8298  -3.7830  -3.7242  -3.7069  -3.5887  -3.4531  -3.4192
    -3.3929  -3.3354  -3.3057  -3.2566  -3.1875  -3.1045  -3.0607  -3.0048
    -2.9398  -2.9157  -2.8704  -2.8626  -2.8080  -2.7567  -2.7379  -2.6865
    -2.6452  -2.6200  -2.5891  -2.5407  -2.5023  -2.4793  -2.4346  -2.4075
    -2.3436  -2.3133  -2.2328  -2.2047  -2.1378  -2.1069  -2.0936  -2.0497
    -1.9993  -1.9361  -1.9070  -1.8762  -1.8487  -1.7799  -1.6942  -1.6387
    -1.6034  -1.5720  -1.4985  -1.4706  -1.4300  -1.4087  -1.3243  -1.2708
    -1.1873  -1.1474  -1.0369  -1.0230  -0.9549  -0.9267  -0.8932  -0.8582
    -0.8186  -0.6547  -0.4559  -0.4018  -0.2056  -0.0229   0.0078   0.0214
     1.5813   1.7875   1.9199   1.9377   1.9568   2.0325   2.0662   2.1436
     2.2402   2.2557   2.2970   2.3574   2.4067   2.4491   2.4508   2.5180
     2.5337   2.5723   2.6038   2.6487   2.6887   2.7673   2.8208   2.8275
     2.8699   2.9222   2.9466   3.0093   3.0172   3.0639   3.1393   3.1628
     3.2286   3.2613   3.2944   3.3102   3.3762   3.3973   3.4396   3.4749
     3.4947   3.5284   3.5419   3.5915   3.6359   3.6857   3.7352   3.8211
     3.9267   4.0275   4.1343   4.1453   4.2805   4.3477   4.5240   4.6323
     4.6544   4.6806   4.8467   4.8968   4.9927   5.3099   5.3609   5.4705
     5.5128   5.5738   5.6530   5.7074   5.7335   5.7501   5.8814   5.9285
     5.9794   6.0205   6.2544   6.2701   6.3051   6.3698   6.4306   6.5133
     6.5404   6.6193   6.6848   6.7313   6.8241   6.9585   7.0263   7.3398
     7.4325   7.6904   7.8125   8.0795   8.3161   8.3990   8.5232   8.9200
     9.0842   9.1647   9.3713   9.4681

          k =-0.0506 0.0560 0.0000 ( 34596 PWs)   bands (ev):

   -57.8151 -57.7977 -57.5094 -57.4634 -57.3821 -57.3629 -57.2706 -57.2529
   -57.1731 -57.1552 -57.1098 -57.0920 -56.8816 -56.8172 -56.2773 -56.2596
   -34.1658 -34.0977 -34.0834 -34.0004 -33.9706 -33.9649 -33.9544 -33.8063
   -33.7767 -33.7664 -33.7525 -33.7148 -33.7067 -33.6941 -33.6796 -33.6762
   -33.5918 -33.5793 -33.5767 -33.5380 -33.5368 -33.5168 -33.4836 -33.4643
   -33.4531 -33.4396 -33.4083 -33.3824 -33.3813 -33.3691 -33.3612 -33.3574
   -33.3414 -33.3285 -33.3049 -33.3025 -33.2677 -33.1472 -33.1353 -33.0880
   -33.0585 -33.0354 -32.6325 -32.6170 -32.6080 -32.4861 -32.4401 -32.4103
   -24.2356 -20.9953 -17.8735 -17.6280 -17.4537 -17.4318 -17.4135 -17.3410
   -17.3015 -17.2696 -17.1974 -17.1643 -17.0936 -17.0737 -17.0082 -16.9864
   -16.9840 -16.9154 -16.9054 -16.8411 -16.8013 -16.7747 -16.7076 -16.6619
   -16.5597 -16.4579 -16.4143 -16.3158 -16.3143 -16.2861 -16.2492 -16.1833
   -14.8934 -14.8571  -9.7916  -7.4829  -7.4625  -5.9933  -5.2155  -4.7835
    -4.7327  -4.7232  -4.6855  -4.6490  -4.6386  -4.6017  -4.4969  -4.4786
    -4.4537  -4.4376  -4.3461  -4.2938  -4.2768  -4.2715  -4.2295  -4.2092
    -4.1846  -4.1723  -4.1583  -4.1313  -4.0783  -4.0413  -4.0303  -4.0005
    -3.9451  -3.8853  -3.8198  -3.7843  -3.6816  -3.6527  -3.5096  -3.4834
    -3.4657  -3.3980  -3.3797  -3.2032  -3.1153  -3.0770  -3.0283  -2.9859
    -2.9604  -2.9120  -2.8914  -2.8562  -2.8086  -2.7670  -2.7130  -2.7081
    -2.6349  -2.6197  -2.5914  -2.5153  -2.4855  -2.4674  -2.4499  -2.4279
    -2.3999  -2.3577  -2.2878  -2.2752  -2.2509  -2.2249  -2.1782  -2.1645
    -2.0928  -2.0533  -2.0228  -1.9813  -1.9358  -1.8546  -1.7866  -1.7706
    -1.7026  -1.6025  -1.5289  -1.4837  -1.4498  -1.3716  -1.3354  -1.2275
    -1.1744  -1.1362  -1.0925  -1.0310  -0.9871  -0.9232  -0.9104  -0.8331
    -0.7990  -0.7847  -0.6562  -0.4655  -0.0542  -0.0171  -0.0037   0.0523
     1.7396   1.9356   1.9567   2.0177   2.0742   2.1138   2.1234   2.1768
     2.2236   2.2711   2.3861   2.4230   2.4312   2.4570   2.4764   2.5019
     2.5954   2.6110   2.6446   2.6673   2.6957   2.7280   2.7931   2.8230
     2.8939   2.9063   2.9461   2.9773   3.0260   3.0650   3.1911   3.2190
     3.2366   3.2668   3.3144   3.3280   3.3713   3.3890   3.4067   3.4680
     3.5456   3.5810   3.6101   3.6903   3.7408   3.7712   3.7813   3.7976
     3.8393   3.9720   4.0242   4.1508   4.2102   4.4525   4.6478   4.6785
     4.7504   4.7530   4.8977   5.0024   5.0743   5.1421   5.2115   5.2367
     5.3080   5.4660   5.5678   5.6354   5.6981   5.7411   5.8321   5.9722
     6.0147   6.1166   6.1669   6.2110   6.2566   6.3050   6.4678   6.4861
     6.5512   6.5925   6.6514   6.6827   6.8412   6.8683   6.9770   7.3068
     7.3294   7.7304   7.7640   8.0195   8.0984   8.1777   8.5794   8.6734
     8.8452   8.9098   9.1437   9.3668

     the Fermi energy is     0.8659 ev

!    total energy              =   -3044.95657630 Ry
     Harris-Foulkes estimate   =   -3044.95657654 Ry
     estimated scf accuracy    <       0.00000038 Ry

     The total energy is the sum of the following terms:

     one-electron contribution =  -40855.47626409 Ry
     hartree contribution      =   20500.05246766 Ry
     xc contribution           =    -557.16131523 Ry
     ewald contribution        =   17867.62874097 Ry
     smearing contrib. (-TS)   =      -0.00020561 Ry

     total magnetization       =     0.00 Bohr mag/cell
     absolute magnetization    =     0.00 Bohr mag/cell

     convergence has been achieved in   9 iterations

     Forces acting on atoms (Ry/au):


     negative rho (up, down):  1.158E-02 1.158E-02
     atom    1 type  1   force =    -0.00008304    0.00030618   -0.13600399
     atom    2 type  2   force =     0.00010502   -0.00008036    0.07517644
     atom    3 type  1   force =     0.00126845    0.00108885   -0.05988221
     atom    4 type  2   force =     0.00661163   -0.00006944    0.00968418
     atom    5 type  1   force =    -0.00131994   -0.00013696   -0.00003885
     atom    6 type  2   force =    -0.00184035   -0.00353018   -0.00897333
     atom    7 type  1   force =     0.01101484    0.00791037   -0.01675298
     atom    8 type  2   force =     0.00049062   -0.00011985    0.00062819
     atom    9 type  1   force =     0.00013048    0.00035228   -0.13607566
     atom   10 type  2   force =     0.00016559   -0.00003510    0.07512203
     atom   11 type  1   force =     0.00126438   -0.00086415   -0.06000905
     atom   12 type  2   force =     0.00604979   -0.00011177    0.00855137
     atom   13 type  1   force =     0.00013671   -0.00016180   -0.00039464
     atom   14 type  2   force =    -0.00201049    0.00294773   -0.00900911
     atom   15 type  1   force =     0.01117354   -0.00780144   -0.01663314
     atom   16 type  2   force =     0.00707881    0.00004922    0.01070620
     atom   17 type  2   force =    -0.00002463   -0.00005785    0.08002000
     atom   18 type  1   force =    -0.00006054    0.00022730    0.11908830
     atom   19 type  2   force =     0.00039052    0.00018807   -0.06811367
     atom   20 type  2   force =    -0.06269295    0.00004972   -0.03209480
     atom   21 type  2   force =     0.06274161    0.00015244   -0.03256371
     atom   22 type  1   force =    -0.00049266   -0.00012837    0.06426735
     atom   23 type  2   force =     0.00015761    0.00061783   -0.00263246
     atom   24 type  2   force =     0.00049527    0.00003864   -0.02240712
     atom   25 type  2   force =    -0.00645344   -0.00025533    0.00824130
     atom   26 type  1   force =    -0.00011768   -0.00005437    0.00250235
     atom   27 type  2   force =     0.00252318   -0.00143154   -0.00240743
     atom   28 type  2   force =    -0.00003818   -0.00002083   -0.00148155
     atom   29 type  2   force =     0.00011685   -0.00005878   -0.00053261
     atom   30 type  1   force =     0.00576633    0.00030199   -0.00068081
     atom   31 type  2   force =    -0.00213742    0.00159570    0.00112405
     atom   32 type  2   force =     0.00158625   -0.00006075    0.00185337
     atom   33 type  2   force =     0.00000114    0.00015051    0.08009046
     atom   34 type  1   force =    -0.00007602    0.00023521    0.11909462
     atom   35 type  2   force =     0.00035694    0.00032488   -0.06806477
     atom   36 type  2   force =    -0.06268811    0.00009874   -0.03230078
     atom   37 type  2   force =     0.06285386    0.00017117   -0.03205662
     atom   38 type  1   force =    -0.00069641    0.00000933    0.06410232
     atom   39 type  2   force =     0.00019148   -0.00082095   -0.00261592
     atom   40 type  2   force =     0.00060628   -0.00227833   -0.02256250
     atom   41 type  2   force =    -0.00619870   -0.00030898    0.00764518
     atom   42 type  1   force =    -0.00009942   -0.00008841    0.00249410
     atom   43 type  2   force =     0.00256049    0.00140856   -0.00241744
     atom   44 type  2   force =     0.00036160   -0.00012644   -0.00071532
     atom   45 type  2   force =    -0.00022528   -0.00006093   -0.00095132
     atom   46 type  1   force =    -0.01907510    0.00048284   -0.00502387
     atom   47 type  2   force =    -0.00210447   -0.00144923    0.00105468
     atom   48 type  2   force =    -0.00084953   -0.00083425   -0.02802934
     atom   49 type  2   force =    -0.04849012    0.00385484    0.17939381
     atom   50 type  3   force =    -0.03284075    0.00538399   -0.03657131
     atom   51 type  3   force =     0.06441600   -0.00700007   -0.07284399

     Total force =     0.429711     Total SCF correction =     0.001716
 !ASE

     Writing output data file calc.save
 
     init_run     :     56.18s CPU     70.73s WALL (       1 calls)
     electrons    :   1888.32s CPU   2344.84s WALL (       1 calls)
     forces       :     40.39s CPU     42.22s WALL (       1 calls)

     Called by init_run:
     wfcinit      :     48.28s CPU     62.10s WALL (       1 calls)
     potinit      :      1.37s CPU      1.66s WALL (       1 calls)

     Called by electrons:
     c_bands      :   1635.35s CPU   2030.32s WALL (       9 calls)
     sum_band     :    212.71s CPU    268.70s WALL (       9 calls)
     v_of_rho     :      9.78s CPU     12.26s WALL (      10 calls)
     newd         :     34.15s CPU     37.44s WALL (      10 calls)
     mix_rho      :      0.36s CPU      0.52s WALL (       9 calls)
     vdW_energy   :      1.79s CPU      2.16s WALL (      11 calls)
     vdW_ffts     :      2.51s CPU      3.31s WALL (      22 calls)
     vdW_v        :      1.06s CPU      1.25s WALL (      11 calls)

     Called by c_bands:
     init_us_2    :      5.33s CPU      5.78s WALL (     800 calls)
     cegterg      :   1600.97s CPU   1994.29s WALL (     360 calls)

     Called by *egterg:
     h_psi        :    685.98s CPU   1012.20s WALL (    1741 calls)
     s_psi        :     84.48s CPU     88.29s WALL (    1741 calls)
     g_psi        :      4.53s CPU      4.61s WALL (    1341 calls)
     cdiaghg      :    517.88s CPU    526.97s WALL (    1701 calls)

     Called by h_psi:
     add_vuspsi   :     85.12s CPU     88.93s WALL (    1741 calls)

     General routines
     calbec       :    130.74s CPU    133.16s WALL (    2141 calls)
     fft          :      5.81s CPU      7.51s WALL (     867 calls)
     ffts         :      0.06s CPU      0.07s WALL (      38 calls)
     fftw         :    454.45s CPU    817.98s WALL (  660058 calls)
     interpolate  :      0.29s CPU      0.47s WALL (      38 calls)
     davcio       :      0.13s CPU      4.31s WALL (      40 calls)
 
     Parallel routines
     fft_scatter  :    250.31s CPU    437.72s WALL (  660963 calls)
 
     PWSCF        : 33m 5.85s CPU    41m 3.84s WALL

 
   This run was terminated on:  12:45:49  10Mar2018            

=------------------------------------------------------------------------------=
   JOB DONE.
=------------------------------------------------------------------------------=
