  python dir          : /home/vossj/suncat/lib/python2.7/site-packages/espresso
  espresso dir        : /home/vossj/suncat/esdld/espresso-dynpy-beef/bin
  pseudo dir          : /home/alatimer/bin/psp/esp_psp_w_gbrvRu/
  ase-espresso py git : ffa2778-git



     Program PWSCF v.5.1rc2 (svn rev. ) starts on 13Feb2018 at  8:15:24 

     This program is part of the open-source Quantum ESPRESSO suite
     for quantum simulation of materials; please cite
         "P. Giannozzi et al., J. Phys.:Condens. Matter 21 395502 (2009);
          URL http://www.quantum-espresso.org", 
     in publications or presentations arising from this work. More details at
     http://www.quantum-espresso.org/quote

     Parallel version (MPI), running on    16 processors
     R & G space division:  proc/nbgrp/npool/nimage =      16
     Reading input from pw.inp
     Message from routine read_cards :
     DEPRECATED: no units specified in CELL_PARAMETERS card

     Current dimensions of program PWSCF are:
     Max number of different atomic species (ntypx) = 10
     Max number of k-points (npk) =  40000
     Max angular momentum in pseudopotentials (lmaxx) =  3

     **************************************************************************
     Initializing libbeef V0.1.1 with the BEEF-vdW functional.
     Citation: Wellendorff et al., PRB 85, 235149 (2012).
     **************************************************************************


     IMPORTANT: XC functional enforced from input :
     Exchange-correlation      = BEEF ( 1  4 27 13 2)
     Any further DFT definition will be discarded
     Please, verify this is what you really want


     Subspace diagonalization in iterative solution of the eigenvalue problem:
     a serial algorithm will be used

 
     Parallelization info
     --------------------
     sticks:   dense  smooth     PW     G-vecs:    dense   smooth      PW
     Min         281     112     31                68535    17318    2565
     Max         282     113     32                68545    17369    2582
     Sum        4501    1795    503              1096637   277353   41113
 
     Generating pointlists ...
     new r_m :   0.4125 (alat units)  0.7795 (a.u.) for type    1
     new r_m :   0.3995 (alat units)  0.7549 (a.u.) for type    2
     new r_m :   0.4125 (alat units)  0.7795 (a.u.) for type    3
     new r_m :   0.3995 (alat units)  0.7549 (a.u.) for type    4


     bravais-lattice index     =            0
     lattice parameter (alat)  =       1.8897  a.u.
     unit-cell volume          =    7990.9933 (a.u.)^3
     number of atoms/cell      =           54
     number of atomic types    =            4
     number of electrons       =       398.00
     number of Kohn-Sham states=          299
     kinetic-energy cutoff     =      40.4243  Ry
     charge density cutoff     =     404.2426  Ry
     convergence threshold     =      7.3E-07
     mixing beta               =       0.1000
     number of iterations used =           10  plain     mixing
     Exchange-correlation      = BEEF ( 1  4 27 13 2)
     nstep                     =           50


     celldm(1)=   1.889726  celldm(2)=   0.000000  celldm(3)=   0.000000
     celldm(4)=   0.000000  celldm(5)=   0.000000  celldm(6)=   0.000000

     crystal axes: (cart. coord. in units of alat)
               a(1) = (   6.590708   0.000000   0.000000 )  
               a(2) = (   0.000000   5.950229   0.000000 )  
               a(3) = (   0.000000   0.000000  30.195235 )  

     reciprocal axes: (cart. coord. in units 2 pi/alat)
               b(1) = (  0.151729  0.000000  0.000000 )  
               b(2) = (  0.000000  0.168061  0.000000 )  
               b(3) = (  0.000000  0.000000  0.033118 )  


     PseudoPot. # 1 for Ti read from file:
     /home/alatimer/bin/psp/esp_psp_w_gbrvRu/Ti.UPF
     MD5 check sum: 8e4df49b7f0d34bbd5052bf3f5ea0213
     Pseudo is Ultrasoft, Zval = 12.0
     Generated by new atomic code, or converted to UPF format
     Using radial grid of  851 points,  6 beta functions with: 
                l(1) =   0
                l(2) =   0
                l(3) =   1
                l(4) =   1
                l(5) =   2
                l(6) =   2
     Q(r) pseudized with  8 coefficients,  rinner =    1.000   1.000   1.000
                                                       1.000   1.000

     PseudoPot. # 2 for  O read from file:
     /home/alatimer/bin/psp/esp_psp_w_gbrvRu/O.UPF
     MD5 check sum: e057bbcf3229fb5d8c36c0c92f9568b4
     Pseudo is Ultrasoft + core correction, Zval =  6.0
     Generated using "atomic" code by A. Dal Corso  v.5.0.2 svn rev. 9415
     Using radial grid of 1095 points,  4 beta functions with: 
                l(1) =   0
                l(2) =   0
                l(3) =   1
                l(4) =   1
     Q(r) pseudized with 0 coefficients 


     PseudoPot. # 3 for  C read from file:
     /home/alatimer/bin/psp/esp_psp_w_gbrvRu/C.UPF
     MD5 check sum: ab446d787031eba755f1d5ee46644bb0
     Pseudo is Ultrasoft + core correction, Zval =  4.0
     Generated using "atomic" code by A. Dal Corso  v.5.0.2 svn rev. 9415
     Using radial grid of 1073 points,  4 beta functions with: 
                l(1) =   0
                l(2) =   0
                l(3) =   1
                l(4) =   1
     Q(r) pseudized with 0 coefficients 


     PseudoPot. # 4 for  H read from file:
     /home/alatimer/bin/psp/esp_psp_w_gbrvRu/H.UPF
     MD5 check sum: bd57da0722753ddfd9833a65b40bb853
     Pseudo is Ultrasoft, Zval =  1.0
     Generated using "atomic" code by A. Dal Corso  v.5.0.2 svn rev. 9415
     Using radial grid of  929 points,  2 beta functions with: 
                l(1) =   0
                l(2) =   0
     Q(r) pseudized with 0 coefficients 


     vdW kernel table read from file vdW_kernel_table
     MD5 check sum: 095c7af220d748ca6e76c0b4c6cfb241

     atomic species   valence    mass     pseudopotential
        Ti1           12.00    47.88000     Ti( 1.00)
        O1             6.00    15.99940      O( 1.00)
        C1             4.00    12.01100      C( 1.00)
        H1             1.00     1.00794      H( 1.00)

     Starting magnetic structure 
     atomic species   magnetization
        Ti1          0.250
        O1           0.500
        C1           0.750
        H1           0.000

     No symmetry found



   Cartesian axes

     site n.     atom                  positions (alat units)
         1           Ti1 tau(   1) = (   1.6476770   0.7437786   2.6545865  )
         2           O1  tau(   2) = (   1.6476770   2.2313359   3.9361215  )
         3           Ti1 tau(   3) = (   1.6476770   2.2313359   5.9499405  )
         4           O1  tau(   4) = (   0.3661420   0.7437786   5.9499405  )
         5           Ti1 tau(   5) = (   1.7592931   0.7557636   9.1813031  )
         6           O1  tau(   6) = (   1.6162490   2.2572048  10.5951269  )
         7           Ti1 tau(   7) = (   1.5595004   2.2680265  12.4668274  )
         8           O1  tau(   8) = (   0.3709531   0.7738127  12.6996540  )
         9           Ti1 tau(   9) = (   1.6476770   3.7188931   2.6545865  )
        10           O1  tau(  10) = (   1.6476770   5.2064503   3.9361215  )
        11           Ti1 tau(  11) = (   1.6476770   5.2064503   5.9499405  )
        12           O1  tau(  12) = (   0.3661420   3.7188931   5.9499405  )
        13           Ti1 tau(  13) = (   1.7607536   3.7112867   9.1949733  )
        14           O1  tau(  14) = (   1.6133076   5.2250699  10.5465640  )
        15           Ti1 tau(  15) = (   1.6492307   5.2431137  12.3448001  )
        16           O1  tau(  16) = (   0.3719744   3.7598389  12.7007434  )
        17           O1  tau(  17) = (   1.6476770   2.2313359   1.3730516  )
        18           Ti1 tau(  18) = (   4.9430310   2.2313359   2.6545865  )
        19           O1  tau(  19) = (   4.9430310   2.2313359   4.6684056  )
        20           O1  tau(  20) = (   6.2245660   0.7437786   2.6545865  )
        21           O1  tau(  21) = (   3.6614961   0.7437786   2.6545865  )
        22           Ti1 tau(  22) = (   4.9430310   0.7437786   5.9499405  )
        23           O1  tau(  23) = (   1.6387103   2.2391978   8.0037664  )
        24           O1  tau(  24) = (   4.9430310   2.2313359   7.2314755  )
        25           O1  tau(  25) = (   2.9292120   0.7437786   5.9499405  )
        26           Ti1 tau(  26) = (   5.0158092   2.2383949   9.3973727  )
        27           O1  tau(  27) = (   4.9391445   2.2276729  11.2675731  )
        28           O1  tau(  28) = (   6.2094020   0.7514556   9.2742047  )
        29           O1  tau(  29) = (   3.6131301   0.7515640   9.2682932  )
        30           Ti1 tau(  30) = (   4.8940083   0.8207741  12.7348365  )
        31           O1  tau(  31) = (   4.8487174   2.2703822  13.8475395  )
        32           O1  tau(  32) = (   2.8766274   0.7418004  12.6316555  )
        33           O1  tau(  33) = (   1.6476770   5.2064503   1.3730516  )
        34           Ti1 tau(  34) = (   4.9430310   5.2064503   2.6545865  )
        35           O1  tau(  35) = (   4.9430310   5.2064503   4.6684056  )
        36           O1  tau(  36) = (   6.2245660   3.7188931   2.6545865  )
        37           O1  tau(  37) = (   3.6614961   3.7188931   2.6545865  )
        38           Ti1 tau(  38) = (   4.9430310   3.7188931   5.9499405  )
        39           O1  tau(  39) = (   1.6418458   5.2133935   8.0066417  )
        40           O1  tau(  40) = (   4.9430310   5.2064503   7.2314755  )
        41           O1  tau(  41) = (   2.9292120   3.7188931   5.9499405  )
        42           Ti1 tau(  42) = (   5.0218241   5.2139137   9.3870600  )
        43           O1  tau(  43) = (   4.9399496   5.2040061  11.2598200  )
        44           O1  tau(  44) = (   6.2073000   3.7245411   9.2731052  )
        45           O1  tau(  45) = (   3.6137513   3.7232133   9.2682466  )
        46           Ti1 tau(  46) = (   4.8936935   3.8094630  12.7397413  )
        47           O1  tau(  47) = (   4.9051259   5.2510468  13.8339921  )
        48           O1  tau(  48) = (   2.8743370   3.7938830  12.6403791  )
        49           C1  tau(  49) = (   1.0587210   2.2268971  15.9066084  )
        50           O1  tau(  50) = (   1.8917182   2.2355032  14.7378010  )
        51           H1  tau(  51) = (   0.0310076   2.2200215  15.5603933  )
        52           H1  tau(  52) = (   2.8355400   2.2288152  14.9543747  )
        53           H1  tau(  53) = (   1.2478062   1.3326534  16.5039879  )
        54           H1  tau(  54) = (   1.2341453   3.1495140  16.5098874  )

     number of k points=    40  Fermi-Dirac smearing, width (Ry)=  0.0073
                       cart. coord. in units 2pi/alat
        k(    1) = (   0.0000000   0.0000000   0.0000000), wk =   0.0277778
        k(    2) = (   0.0000000   0.0280101   0.0000000), wk =   0.0555556
        k(    3) = (   0.0000000   0.0560203   0.0000000), wk =   0.0555556
        k(    4) = (   0.0000000  -0.0840304   0.0000000), wk =   0.0277778
        k(    5) = (   0.0252881   0.0000000   0.0000000), wk =   0.0555556
        k(    6) = (   0.0252881   0.0280101   0.0000000), wk =   0.0555556
        k(    7) = (   0.0252881   0.0560203   0.0000000), wk =   0.0555556
        k(    8) = (   0.0252881  -0.0840304   0.0000000), wk =   0.0555556
        k(    9) = (   0.0505763   0.0000000   0.0000000), wk =   0.0555556
        k(   10) = (   0.0505763   0.0280101   0.0000000), wk =   0.0555556
        k(   11) = (   0.0505763   0.0560203   0.0000000), wk =   0.0555556
        k(   12) = (   0.0505763  -0.0840304   0.0000000), wk =   0.0555556
        k(   13) = (  -0.0758644   0.0000000   0.0000000), wk =   0.0277778
        k(   14) = (  -0.0758644   0.0280101   0.0000000), wk =   0.0555556
        k(   15) = (  -0.0758644   0.0560203   0.0000000), wk =   0.0555556
        k(   16) = (  -0.0758644  -0.0840304   0.0000000), wk =   0.0277778
        k(   17) = (  -0.0252881   0.0280101   0.0000000), wk =   0.0555556
        k(   18) = (  -0.0252881   0.0560203   0.0000000), wk =   0.0555556
        k(   19) = (  -0.0505763   0.0280101   0.0000000), wk =   0.0555556
        k(   20) = (  -0.0505763   0.0560203   0.0000000), wk =   0.0555556
        k(   21) = (   0.0000000   0.0000000   0.0000000), wk =   0.0277778
        k(   22) = (   0.0000000   0.0280101   0.0000000), wk =   0.0555556
        k(   23) = (   0.0000000   0.0560203   0.0000000), wk =   0.0555556
        k(   24) = (   0.0000000  -0.0840304   0.0000000), wk =   0.0277778
        k(   25) = (   0.0252881   0.0000000   0.0000000), wk =   0.0555556
        k(   26) = (   0.0252881   0.0280101   0.0000000), wk =   0.0555556
        k(   27) = (   0.0252881   0.0560203   0.0000000), wk =   0.0555556
        k(   28) = (   0.0252881  -0.0840304   0.0000000), wk =   0.0555556
        k(   29) = (   0.0505763   0.0000000   0.0000000), wk =   0.0555556
        k(   30) = (   0.0505763   0.0280101   0.0000000), wk =   0.0555556
        k(   31) = (   0.0505763   0.0560203   0.0000000), wk =   0.0555556
        k(   32) = (   0.0505763  -0.0840304   0.0000000), wk =   0.0555556
        k(   33) = (  -0.0758644   0.0000000   0.0000000), wk =   0.0277778
        k(   34) = (  -0.0758644   0.0280101   0.0000000), wk =   0.0555556
        k(   35) = (  -0.0758644   0.0560203   0.0000000), wk =   0.0555556
        k(   36) = (  -0.0758644  -0.0840304   0.0000000), wk =   0.0277778
        k(   37) = (  -0.0252881   0.0280101   0.0000000), wk =   0.0555556
        k(   38) = (  -0.0252881   0.0560203   0.0000000), wk =   0.0555556
        k(   39) = (  -0.0505763   0.0280101   0.0000000), wk =   0.0555556
        k(   40) = (  -0.0505763   0.0560203   0.0000000), wk =   0.0555556

     Dense  grid:  1096637 G-vectors     FFT dimensions: (  80,  72, 375)

     Smooth grid:   277353 G-vectors     FFT dimensions: (  54,  45, 240)

     Largest allocated arrays     est. size (Mb)     dimensions
        Kohn-Sham Wavefunctions         9.95 Mb     (    2180,  299)
        NL pseudopotentials            18.89 Mb     (    2180,  568)
        Each V/rho on FFT grid          4.22 Mb     (  138240,   2)
        Each G-vector array             0.52 Mb     (   68538)
        G-vector shells                 0.25 Mb     (   33046)
     Largest temporary arrays     est. size (Mb)     dimensions
        Auxiliary wavefunctions        39.78 Mb     (    2180, 1196)
        Each subspace H/S matrix       21.83 Mb     (    1196, 1196)
        Each <psi_i|beta_j> matrix      2.59 Mb     (     568,  299)
        Arrays for rho mixing          21.09 Mb     (  138240,   10)

     Check: negative/imaginary core charge=   -0.000049    0.000000

     The initial density is read from file :
     ./calc.save/charge-density.dat


     negative rho (up, down):  1.209E-02 1.209E-02


     ************************************************************************
     *
     * You are using vdW-DF for exchange-correlation in this calculation.
     * Please cite the following three references that made this development
     * possible:
     *
     *   M. Dion, H. Rydberg, E. Schroder, D. C. Langreth, and
     *   B. I. Lundqvist, Phys. Rev. Lett. 92, 246401 (2004).
     *
     *   T. Thonhauser, V. R. Cooper, S. Li, A. Puzder, P. Hyldgaard, and
     *   D. C. Langreth, Phys. Rev. B 76, 125112 (2007).
     *
     *   G. Roman-Perez and J. M. Soler, Phys. Rev. Lett. 103, 096102 (2009).
     *
     *
     * If you are using vdW-DF2, please also cite:
     *
     *   K. Lee, E. D. Murray, L. Kong, B. I. Lundqvist, and
     *   D. C. Langreth, Phys. Rev. B 82, 081101(R) (2010).
     *
     *
     * If you are calculating the stress with vdW-DF, please also cite:
     *
     *   R. Sabatini, E. Kucukbenli, B. Kolb, T. Thonhauser, and
     *   S. de Gironcoli, J. Phys.: Condens. Matter 24, 424209 (2012).
     *
     ************************************************************************

     Carrying out vdW-DF run using the following parameters:

     Nqs =      20    Nr_points =    1024   r_max =   100.000
     q_mesh =
               0.00001000     0.04494208     0.09755937     0.15916263
               0.23128650     0.31572767     0.41458969     0.53033537
               0.66584808     0.82450364     1.01025438     1.22772762
               1.48234092     1.78043706     2.12944203     2.53805004
               3.01644009     3.57652955     4.23227104     5.00000000

     Gradients computed in reciprocal space

     ************************************************************************


     Starting wfc are  300 randomized atomic wfcs

     total cpu time spent up to now is       72.9 secs

     Self-consistent Calculation

     iteration #  1     ecut=    40.42 Ry     beta=0.10
     Davidson diagonalization with overlap
     ethr =  1.00E-05,  avg # of iterations = 14.7

     Threshold (ethr) on eigenvalues was too large:
     Diagonalizing with lowered threshold

     Davidson diagonalization with overlap
     ethr =  6.12E-07,  avg # of iterations =  1.0

     negative rho (up, down):  1.209E-02 1.209E-02
 
     Magnetic moment per site:
     atom:    1    charge:    3.1250    magn:   -0.0002    constr:    0.0000
     atom:    2    charge:    1.9452    magn:    0.0000    constr:    0.0000
     atom:    3    charge:    3.1198    magn:    0.0000    constr:    0.0000
     atom:    4    charge:    1.9504    magn:   -0.0001    constr:    0.0000
     atom:    5    charge:    3.1166    magn:    0.0000    constr:    0.0000
     atom:    6    charge:    1.9477    magn:   -0.0001    constr:    0.0000
     atom:    7    charge:    3.1157    magn:    0.0001    constr:    0.0000
     atom:    8    charge:    1.9452    magn:   -0.0001    constr:    0.0000
     atom:    9    charge:    3.1250    magn:   -0.0002    constr:    0.0000
     atom:   10    charge:    1.9452    magn:    0.0000    constr:    0.0000
     atom:   11    charge:    3.1197    magn:    0.0000    constr:    0.0000
     atom:   12    charge:    1.9504    magn:   -0.0001    constr:    0.0000
     atom:   13    charge:    3.1158    magn:    0.0000    constr:    0.0000
     atom:   14    charge:    1.9587    magn:   -0.0001    constr:    0.0000
     atom:   15    charge:    3.1188    magn:    0.0001    constr:    0.0000
     atom:   16    charge:    1.9445    magn:   -0.0001    constr:    0.0000
     atom:   17    charge:    1.9184    magn:    0.0004    constr:    0.0000
     atom:   18    charge:    3.1239    magn:   -0.0001    constr:    0.0000
     atom:   19    charge:    1.9408    magn:   -0.0000    constr:    0.0000
     atom:   20    charge:    1.9471    magn:    0.0000    constr:    0.0000
     atom:   21    charge:    1.9471    magn:    0.0000    constr:    0.0000
     atom:   22    charge:    3.1196    magn:    0.0000    constr:    0.0000
     atom:   23    charge:    1.9566    magn:   -0.0001    constr:    0.0000
     atom:   24    charge:    1.9379    magn:   -0.0001    constr:    0.0000
     atom:   25    charge:    1.9505    magn:   -0.0001    constr:    0.0000
     atom:   26    charge:    3.1145    magn:    0.0001    constr:    0.0000
     atom:   27    charge:    1.9398    magn:   -0.0001    constr:    0.0000
     atom:   28    charge:    1.9517    magn:   -0.0001    constr:    0.0000
     atom:   29    charge:    1.9476    magn:   -0.0001    constr:    0.0000
     atom:   30    charge:    3.1167    magn:    0.0000    constr:    0.0000
     atom:   31    charge:    1.9446    magn:   -0.0000    constr:    0.0000
     atom:   32    charge:    1.9440    magn:   -0.0001    constr:    0.0000
     atom:   33    charge:    1.9184    magn:    0.0004    constr:    0.0000
     atom:   34    charge:    3.1239    magn:   -0.0001    constr:    0.0000
     atom:   35    charge:    1.9408    magn:   -0.0000    constr:    0.0000
     atom:   36    charge:    1.9471    magn:    0.0000    constr:    0.0000
     atom:   37    charge:    1.9471    magn:    0.0000    constr:    0.0000
     atom:   38    charge:    3.1196    magn:    0.0000    constr:    0.0000
     atom:   39    charge:    1.9549    magn:   -0.0001    constr:    0.0000
     atom:   40    charge:    1.9383    magn:   -0.0001    constr:    0.0000
     atom:   41    charge:    1.9505    magn:   -0.0001    constr:    0.0000
     atom:   42    charge:    3.1141    magn:    0.0001    constr:    0.0000
     atom:   43    charge:    1.9413    magn:   -0.0001    constr:    0.0000
     atom:   44    charge:    1.9517    magn:   -0.0001    constr:    0.0000
     atom:   45    charge:    1.9468    magn:   -0.0001    constr:    0.0000
     atom:   46    charge:    3.1165    magn:    0.0000    constr:    0.0000
     atom:   47    charge:    1.9431    magn:   -0.0000    constr:    0.0000
     atom:   48    charge:    1.9444    magn:   -0.0001    constr:    0.0000
     atom:   49    charge:    0.6568    magn:   -0.0001    constr:    0.0000
     atom:   50    charge:    1.9579    magn:   -0.0001    constr:    0.0000
     atom:   51    charge:    0.4024    magn:    0.0000    constr:    0.0000
     atom:   52    charge:    0.4006    magn:    0.0000    constr:    0.0000
     atom:   53    charge:    0.4033    magn:    0.0000    constr:    0.0000
     atom:   54    charge:    0.3901    magn:    0.0000    constr:    0.0000

     total cpu time spent up to now is     1021.5 secs

     total energy              =   -3021.41978157 Ry
     Harris-Foulkes estimate   =   -3021.42003501 Ry
     estimated scf accuracy    <       0.00243179 Ry

     total magnetization       =     0.00 Bohr mag/cell
     absolute magnetization    =     0.01 Bohr mag/cell

     iteration #  2     ecut=    40.42 Ry     beta=0.10
     Davidson diagonalization with overlap
     ethr =  6.11E-07,  avg # of iterations =  2.0

     negative rho (up, down):  1.207E-02 1.207E-02
 
     Magnetic moment per site:
     atom:    1    charge:    3.1250    magn:   -0.0001    constr:    0.0000
     atom:    2    charge:    1.9452    magn:    0.0000    constr:    0.0000
     atom:    3    charge:    3.1198    magn:    0.0000    constr:    0.0000
     atom:    4    charge:    1.9504    magn:   -0.0000    constr:    0.0000
     atom:    5    charge:    3.1166    magn:    0.0000    constr:    0.0000
     atom:    6    charge:    1.9477    magn:   -0.0001    constr:    0.0000
     atom:    7    charge:    3.1157    magn:    0.0000    constr:    0.0000
     atom:    8    charge:    1.9452    magn:   -0.0001    constr:    0.0000
     atom:    9    charge:    3.1250    magn:   -0.0001    constr:    0.0000
     atom:   10    charge:    1.9452    magn:    0.0000    constr:    0.0000
     atom:   11    charge:    3.1197    magn:    0.0000    constr:    0.0000
     atom:   12    charge:    1.9504    magn:   -0.0000    constr:    0.0000
     atom:   13    charge:    3.1158    magn:    0.0000    constr:    0.0000
     atom:   14    charge:    1.9587    magn:   -0.0001    constr:    0.0000
     atom:   15    charge:    3.1189    magn:    0.0000    constr:    0.0000
     atom:   16    charge:    1.9446    magn:   -0.0001    constr:    0.0000
     atom:   17    charge:    1.9184    magn:    0.0003    constr:    0.0000
     atom:   18    charge:    3.1239    magn:   -0.0001    constr:    0.0000
     atom:   19    charge:    1.9408    magn:   -0.0000    constr:    0.0000
     atom:   20    charge:    1.9471    magn:    0.0000    constr:    0.0000
     atom:   21    charge:    1.9471    magn:    0.0000    constr:    0.0000
     atom:   22    charge:    3.1196    magn:    0.0000    constr:    0.0000
     atom:   23    charge:    1.9566    magn:   -0.0001    constr:    0.0000
     atom:   24    charge:    1.9379    magn:   -0.0000    constr:    0.0000
     atom:   25    charge:    1.9505    magn:   -0.0000    constr:    0.0000
     atom:   26    charge:    3.1145    magn:    0.0000    constr:    0.0000
     atom:   27    charge:    1.9398    magn:   -0.0000    constr:    0.0000
     atom:   28    charge:    1.9517    magn:   -0.0001    constr:    0.0000
     atom:   29    charge:    1.9476    magn:   -0.0001    constr:    0.0000
     atom:   30    charge:    3.1167    magn:    0.0000    constr:    0.0000
     atom:   31    charge:    1.9446    magn:   -0.0000    constr:    0.0000
     atom:   32    charge:    1.9440    magn:   -0.0001    constr:    0.0000
     atom:   33    charge:    1.9184    magn:    0.0003    constr:    0.0000
     atom:   34    charge:    3.1239    magn:   -0.0001    constr:    0.0000
     atom:   35    charge:    1.9408    magn:   -0.0000    constr:    0.0000
     atom:   36    charge:    1.9471    magn:    0.0000    constr:    0.0000
     atom:   37    charge:    1.9471    magn:    0.0000    constr:    0.0000
     atom:   38    charge:    3.1196    magn:    0.0000    constr:    0.0000
     atom:   39    charge:    1.9550    magn:   -0.0001    constr:    0.0000
     atom:   40    charge:    1.9383    magn:   -0.0000    constr:    0.0000
     atom:   41    charge:    1.9505    magn:   -0.0000    constr:    0.0000
     atom:   42    charge:    3.1141    magn:    0.0000    constr:    0.0000
     atom:   43    charge:    1.9413    magn:   -0.0000    constr:    0.0000
     atom:   44    charge:    1.9517    magn:   -0.0001    constr:    0.0000
     atom:   45    charge:    1.9469    magn:   -0.0001    constr:    0.0000
     atom:   46    charge:    3.1165    magn:    0.0000    constr:    0.0000
     atom:   47    charge:    1.9432    magn:   -0.0000    constr:    0.0000
     atom:   48    charge:    1.9445    magn:   -0.0001    constr:    0.0000
     atom:   49    charge:    0.6522    magn:   -0.0000    constr:    0.0000
     atom:   50    charge:    1.9583    magn:   -0.0001    constr:    0.0000
     atom:   51    charge:    0.4029    magn:    0.0000    constr:    0.0000
     atom:   52    charge:    0.4007    magn:    0.0000    constr:    0.0000
     atom:   53    charge:    0.4034    magn:    0.0000    constr:    0.0000
     atom:   54    charge:    0.3907    magn:    0.0000    constr:    0.0000

     total cpu time spent up to now is     1212.5 secs

     total energy              =   -3021.41917261 Ry
     Harris-Foulkes estimate   =   -3021.41979861 Ry
     estimated scf accuracy    <       0.00163476 Ry

     total magnetization       =     0.00 Bohr mag/cell
     absolute magnetization    =     0.01 Bohr mag/cell

     iteration #  3     ecut=    40.42 Ry     beta=0.10
     Davidson diagonalization with overlap
     ethr =  4.11E-07,  avg # of iterations =  4.7

     negative rho (up, down):  1.207E-02 1.207E-02
 
     Magnetic moment per site:
     atom:    1    charge:    3.1250    magn:   -0.0001    constr:    0.0000
     atom:    2    charge:    1.9452    magn:    0.0000    constr:    0.0000
     atom:    3    charge:    3.1198    magn:    0.0000    constr:    0.0000
     atom:    4    charge:    1.9504    magn:   -0.0000    constr:    0.0000
     atom:    5    charge:    3.1166    magn:    0.0000    constr:    0.0000
     atom:    6    charge:    1.9477    magn:   -0.0001    constr:    0.0000
     atom:    7    charge:    3.1157    magn:    0.0000    constr:    0.0000
     atom:    8    charge:    1.9452    magn:   -0.0001    constr:    0.0000
     atom:    9    charge:    3.1250    magn:   -0.0001    constr:    0.0000
     atom:   10    charge:    1.9452    magn:    0.0000    constr:    0.0000
     atom:   11    charge:    3.1197    magn:    0.0000    constr:    0.0000
     atom:   12    charge:    1.9504    magn:   -0.0000    constr:    0.0000
     atom:   13    charge:    3.1158    magn:    0.0000    constr:    0.0000
     atom:   14    charge:    1.9587    magn:   -0.0001    constr:    0.0000
     atom:   15    charge:    3.1189    magn:    0.0000    constr:    0.0000
     atom:   16    charge:    1.9446    magn:   -0.0001    constr:    0.0000
     atom:   17    charge:    1.9184    magn:    0.0003    constr:    0.0000
     atom:   18    charge:    3.1239    magn:   -0.0001    constr:    0.0000
     atom:   19    charge:    1.9408    magn:   -0.0000    constr:    0.0000
     atom:   20    charge:    1.9471    magn:    0.0000    constr:    0.0000
     atom:   21    charge:    1.9471    magn:    0.0000    constr:    0.0000
     atom:   22    charge:    3.1196    magn:    0.0000    constr:    0.0000
     atom:   23    charge:    1.9566    magn:   -0.0001    constr:    0.0000
     atom:   24    charge:    1.9379    magn:   -0.0000    constr:    0.0000
     atom:   25    charge:    1.9505    magn:   -0.0000    constr:    0.0000
     atom:   26    charge:    3.1145    magn:    0.0000    constr:    0.0000
     atom:   27    charge:    1.9398    magn:   -0.0000    constr:    0.0000
     atom:   28    charge:    1.9517    magn:   -0.0001    constr:    0.0000
     atom:   29    charge:    1.9476    magn:   -0.0001    constr:    0.0000
     atom:   30    charge:    3.1167    magn:    0.0000    constr:    0.0000
     atom:   31    charge:    1.9447    magn:   -0.0000    constr:    0.0000
     atom:   32    charge:    1.9440    magn:   -0.0001    constr:    0.0000
     atom:   33    charge:    1.9184    magn:    0.0003    constr:    0.0000
     atom:   34    charge:    3.1239    magn:   -0.0001    constr:    0.0000
     atom:   35    charge:    1.9408    magn:   -0.0000    constr:    0.0000
     atom:   36    charge:    1.9471    magn:    0.0000    constr:    0.0000
     atom:   37    charge:    1.9471    magn:    0.0000    constr:    0.0000
     atom:   38    charge:    3.1196    magn:    0.0000    constr:    0.0000
     atom:   39    charge:    1.9550    magn:   -0.0001    constr:    0.0000
     atom:   40    charge:    1.9383    magn:   -0.0000    constr:    0.0000
     atom:   41    charge:    1.9505    magn:   -0.0000    constr:    0.0000
     atom:   42    charge:    3.1141    magn:    0.0000    constr:    0.0000
     atom:   43    charge:    1.9413    magn:   -0.0000    constr:    0.0000
     atom:   44    charge:    1.9517    magn:   -0.0001    constr:    0.0000
     atom:   45    charge:    1.9468    magn:   -0.0001    constr:    0.0000
     atom:   46    charge:    3.1165    magn:    0.0000    constr:    0.0000
     atom:   47    charge:    1.9431    magn:   -0.0000    constr:    0.0000
     atom:   48    charge:    1.9444    magn:   -0.0001    constr:    0.0000
     atom:   49    charge:    0.6530    magn:   -0.0000    constr:    0.0000
     atom:   50    charge:    1.9580    magn:   -0.0000    constr:    0.0000
     atom:   51    charge:    0.4028    magn:    0.0000    constr:    0.0000
     atom:   52    charge:    0.4006    magn:    0.0000    constr:    0.0000
     atom:   53    charge:    0.4033    magn:    0.0000    constr:    0.0000
     atom:   54    charge:    0.3906    magn:    0.0000    constr:    0.0000

     total cpu time spent up to now is     1449.1 secs

     total energy              =   -3021.41942699 Ry
     Harris-Foulkes estimate   =   -3021.41944782 Ry
     estimated scf accuracy    <       0.00019490 Ry

     total magnetization       =     0.00 Bohr mag/cell
     absolute magnetization    =     0.00 Bohr mag/cell

     iteration #  4     ecut=    40.42 Ry     beta=0.10
     Davidson diagonalization with overlap
     ethr =  4.90E-08,  avg # of iterations =  3.0

     negative rho (up, down):  1.207E-02 1.207E-02
 
     Magnetic moment per site:
     atom:    1    charge:    3.1250    magn:   -0.0001    constr:    0.0000
     atom:    2    charge:    1.9452    magn:    0.0000    constr:    0.0000
     atom:    3    charge:    3.1198    magn:    0.0000    constr:    0.0000
     atom:    4    charge:    1.9504    magn:   -0.0000    constr:    0.0000
     atom:    5    charge:    3.1166    magn:    0.0000    constr:    0.0000
     atom:    6    charge:    1.9476    magn:   -0.0000    constr:    0.0000
     atom:    7    charge:    3.1157    magn:    0.0000    constr:    0.0000
     atom:    8    charge:    1.9452    magn:   -0.0000    constr:    0.0000
     atom:    9    charge:    3.1250    magn:   -0.0001    constr:    0.0000
     atom:   10    charge:    1.9452    magn:    0.0000    constr:    0.0000
     atom:   11    charge:    3.1197    magn:    0.0000    constr:    0.0000
     atom:   12    charge:    1.9504    magn:   -0.0000    constr:    0.0000
     atom:   13    charge:    3.1158    magn:    0.0000    constr:    0.0000
     atom:   14    charge:    1.9587    magn:   -0.0000    constr:    0.0000
     atom:   15    charge:    3.1188    magn:    0.0000    constr:    0.0000
     atom:   16    charge:    1.9445    magn:   -0.0000    constr:    0.0000
     atom:   17    charge:    1.9184    magn:    0.0002    constr:    0.0000
     atom:   18    charge:    3.1239    magn:   -0.0000    constr:    0.0000
     atom:   19    charge:    1.9408    magn:   -0.0000    constr:    0.0000
     atom:   20    charge:    1.9471    magn:    0.0000    constr:    0.0000
     atom:   21    charge:    1.9471    magn:    0.0000    constr:    0.0000
     atom:   22    charge:    3.1196    magn:    0.0000    constr:    0.0000
     atom:   23    charge:    1.9566    magn:   -0.0000    constr:    0.0000
     atom:   24    charge:    1.9379    magn:   -0.0000    constr:    0.0000
     atom:   25    charge:    1.9505    magn:   -0.0000    constr:    0.0000
     atom:   26    charge:    3.1145    magn:    0.0000    constr:    0.0000
     atom:   27    charge:    1.9398    magn:   -0.0000    constr:    0.0000
     atom:   28    charge:    1.9517    magn:   -0.0000    constr:    0.0000
     atom:   29    charge:    1.9476    magn:   -0.0000    constr:    0.0000
     atom:   30    charge:    3.1167    magn:    0.0000    constr:    0.0000
     atom:   31    charge:    1.9447    magn:   -0.0000    constr:    0.0000
     atom:   32    charge:    1.9440    magn:   -0.0000    constr:    0.0000
     atom:   33    charge:    1.9184    magn:    0.0002    constr:    0.0000
     atom:   34    charge:    3.1239    magn:   -0.0000    constr:    0.0000
     atom:   35    charge:    1.9408    magn:   -0.0000    constr:    0.0000
     atom:   36    charge:    1.9471    magn:    0.0000    constr:    0.0000
     atom:   37    charge:    1.9471    magn:    0.0000    constr:    0.0000
     atom:   38    charge:    3.1196    magn:    0.0000    constr:    0.0000
     atom:   39    charge:    1.9549    magn:   -0.0000    constr:    0.0000
     atom:   40    charge:    1.9383    magn:   -0.0000    constr:    0.0000
     atom:   41    charge:    1.9505    magn:   -0.0000    constr:    0.0000
     atom:   42    charge:    3.1141    magn:    0.0000    constr:    0.0000
     atom:   43    charge:    1.9413    magn:   -0.0000    constr:    0.0000
     atom:   44    charge:    1.9518    magn:   -0.0000    constr:    0.0000
     atom:   45    charge:    1.9468    magn:   -0.0000    constr:    0.0000
     atom:   46    charge:    3.1165    magn:    0.0000    constr:    0.0000
     atom:   47    charge:    1.9430    magn:   -0.0000    constr:    0.0000
     atom:   48    charge:    1.9444    magn:   -0.0000    constr:    0.0000
     atom:   49    charge:    0.6542    magn:   -0.0000    constr:    0.0000
     atom:   50    charge:    1.9575    magn:   -0.0000    constr:    0.0000
     atom:   51    charge:    0.4024    magn:    0.0000    constr:    0.0000
     atom:   52    charge:    0.4005    magn:    0.0000    constr:    0.0000
     atom:   53    charge:    0.4029    magn:    0.0000    constr:    0.0000
     atom:   54    charge:    0.3903    magn:    0.0000    constr:    0.0000

     total cpu time spent up to now is     1654.2 secs

     total energy              =   -3021.41941465 Ry
     Harris-Foulkes estimate   =   -3021.41943132 Ry
     estimated scf accuracy    <       0.00012750 Ry

     total magnetization       =     0.00 Bohr mag/cell
     absolute magnetization    =     0.00 Bohr mag/cell

     iteration #  5     ecut=    40.42 Ry     beta=0.10
     Davidson diagonalization with overlap
     ethr =  3.20E-08,  avg # of iterations =  3.0

     negative rho (up, down):  1.207E-02 1.207E-02
 
     Magnetic moment per site:
     atom:    1    charge:    3.1250    magn:   -0.0001    constr:    0.0000
     atom:    2    charge:    1.9452    magn:    0.0000    constr:    0.0000
     atom:    3    charge:    3.1198    magn:    0.0000    constr:    0.0000
     atom:    4    charge:    1.9504    magn:   -0.0000    constr:    0.0000
     atom:    5    charge:    3.1166    magn:    0.0000    constr:    0.0000
     atom:    6    charge:    1.9476    magn:   -0.0000    constr:    0.0000
     atom:    7    charge:    3.1157    magn:    0.0000    constr:    0.0000
     atom:    8    charge:    1.9452    magn:   -0.0000    constr:    0.0000
     atom:    9    charge:    3.1250    magn:   -0.0001    constr:    0.0000
     atom:   10    charge:    1.9452    magn:    0.0000    constr:    0.0000
     atom:   11    charge:    3.1197    magn:    0.0000    constr:    0.0000
     atom:   12    charge:    1.9504    magn:   -0.0000    constr:    0.0000
     atom:   13    charge:    3.1158    magn:    0.0000    constr:    0.0000
     atom:   14    charge:    1.9587    magn:   -0.0000    constr:    0.0000
     atom:   15    charge:    3.1188    magn:    0.0000    constr:    0.0000
     atom:   16    charge:    1.9445    magn:   -0.0000    constr:    0.0000
     atom:   17    charge:    1.9184    magn:    0.0002    constr:    0.0000
     atom:   18    charge:    3.1239    magn:   -0.0000    constr:    0.0000
     atom:   19    charge:    1.9408    magn:   -0.0000    constr:    0.0000
     atom:   20    charge:    1.9471    magn:    0.0000    constr:    0.0000
     atom:   21    charge:    1.9471    magn:    0.0000    constr:    0.0000
     atom:   22    charge:    3.1196    magn:    0.0000    constr:    0.0000
     atom:   23    charge:    1.9566    magn:   -0.0000    constr:    0.0000
     atom:   24    charge:    1.9379    magn:   -0.0000    constr:    0.0000
     atom:   25    charge:    1.9505    magn:   -0.0000    constr:    0.0000
     atom:   26    charge:    3.1145    magn:    0.0000    constr:    0.0000
     atom:   27    charge:    1.9398    magn:   -0.0000    constr:    0.0000
     atom:   28    charge:    1.9517    magn:   -0.0000    constr:    0.0000
     atom:   29    charge:    1.9476    magn:   -0.0000    constr:    0.0000
     atom:   30    charge:    3.1167    magn:    0.0000    constr:    0.0000
     atom:   31    charge:    1.9447    magn:   -0.0000    constr:    0.0000
     atom:   32    charge:    1.9440    magn:   -0.0000    constr:    0.0000
     atom:   33    charge:    1.9184    magn:    0.0002    constr:    0.0000
     atom:   34    charge:    3.1239    magn:   -0.0000    constr:    0.0000
     atom:   35    charge:    1.9408    magn:   -0.0000    constr:    0.0000
     atom:   36    charge:    1.9471    magn:    0.0000    constr:    0.0000
     atom:   37    charge:    1.9471    magn:    0.0000    constr:    0.0000
     atom:   38    charge:    3.1196    magn:    0.0000    constr:    0.0000
     atom:   39    charge:    1.9549    magn:   -0.0000    constr:    0.0000
     atom:   40    charge:    1.9383    magn:   -0.0000    constr:    0.0000
     atom:   41    charge:    1.9505    magn:   -0.0000    constr:    0.0000
     atom:   42    charge:    3.1141    magn:    0.0000    constr:    0.0000
     atom:   43    charge:    1.9413    magn:   -0.0000    constr:    0.0000
     atom:   44    charge:    1.9517    magn:   -0.0000    constr:    0.0000
     atom:   45    charge:    1.9468    magn:   -0.0000    constr:    0.0000
     atom:   46    charge:    3.1165    magn:    0.0000    constr:    0.0000
     atom:   47    charge:    1.9431    magn:   -0.0000    constr:    0.0000
     atom:   48    charge:    1.9444    magn:   -0.0000    constr:    0.0000
     atom:   49    charge:    0.6547    magn:   -0.0000    constr:    0.0000
     atom:   50    charge:    1.9576    magn:   -0.0000    constr:    0.0000
     atom:   51    charge:    0.4023    magn:    0.0000    constr:    0.0000
     atom:   52    charge:    0.4005    magn:    0.0000    constr:    0.0000
     atom:   53    charge:    0.4029    magn:    0.0000    constr:    0.0000
     atom:   54    charge:    0.3902    magn:    0.0000    constr:    0.0000

     total cpu time spent up to now is     1861.6 secs

     total energy              =   -3021.41942131 Ry
     Harris-Foulkes estimate   =   -3021.41942248 Ry
     estimated scf accuracy    <       0.00000787 Ry

     total magnetization       =     0.00 Bohr mag/cell
     absolute magnetization    =     0.00 Bohr mag/cell

     iteration #  6     ecut=    40.42 Ry     beta=0.10
     Davidson diagonalization with overlap
     ethr =  1.98E-09,  avg # of iterations =  4.0

     negative rho (up, down):  1.207E-02 1.207E-02
 
     Magnetic moment per site:
     atom:    1    charge:    3.1250    magn:   -0.0001    constr:    0.0000
     atom:    2    charge:    1.9452    magn:    0.0000    constr:    0.0000
     atom:    3    charge:    3.1198    magn:    0.0000    constr:    0.0000
     atom:    4    charge:    1.9504    magn:   -0.0000    constr:    0.0000
     atom:    5    charge:    3.1166    magn:    0.0000    constr:    0.0000
     atom:    6    charge:    1.9476    magn:   -0.0000    constr:    0.0000
     atom:    7    charge:    3.1157    magn:    0.0000    constr:    0.0000
     atom:    8    charge:    1.9452    magn:   -0.0000    constr:    0.0000
     atom:    9    charge:    3.1250    magn:   -0.0001    constr:    0.0000
     atom:   10    charge:    1.9452    magn:    0.0000    constr:    0.0000
     atom:   11    charge:    3.1197    magn:    0.0000    constr:    0.0000
     atom:   12    charge:    1.9504    magn:   -0.0000    constr:    0.0000
     atom:   13    charge:    3.1158    magn:    0.0000    constr:    0.0000
     atom:   14    charge:    1.9587    magn:   -0.0000    constr:    0.0000
     atom:   15    charge:    3.1188    magn:    0.0000    constr:    0.0000
     atom:   16    charge:    1.9445    magn:   -0.0000    constr:    0.0000
     atom:   17    charge:    1.9184    magn:    0.0002    constr:    0.0000
     atom:   18    charge:    3.1239    magn:   -0.0000    constr:    0.0000
     atom:   19    charge:    1.9408    magn:   -0.0000    constr:    0.0000
     atom:   20    charge:    1.9471    magn:    0.0000    constr:    0.0000
     atom:   21    charge:    1.9471    magn:    0.0000    constr:    0.0000
     atom:   22    charge:    3.1196    magn:    0.0000    constr:    0.0000
     atom:   23    charge:    1.9566    magn:   -0.0000    constr:    0.0000
     atom:   24    charge:    1.9379    magn:   -0.0000    constr:    0.0000
     atom:   25    charge:    1.9505    magn:   -0.0000    constr:    0.0000
     atom:   26    charge:    3.1145    magn:    0.0000    constr:    0.0000
     atom:   27    charge:    1.9398    magn:   -0.0000    constr:    0.0000
     atom:   28    charge:    1.9517    magn:   -0.0000    constr:    0.0000
     atom:   29    charge:    1.9476    magn:   -0.0000    constr:    0.0000
     atom:   30    charge:    3.1167    magn:    0.0000    constr:    0.0000
     atom:   31    charge:    1.9447    magn:   -0.0000    constr:    0.0000
     atom:   32    charge:    1.9440    magn:   -0.0000    constr:    0.0000
     atom:   33    charge:    1.9184    magn:    0.0002    constr:    0.0000
     atom:   34    charge:    3.1239    magn:   -0.0000    constr:    0.0000
     atom:   35    charge:    1.9408    magn:   -0.0000    constr:    0.0000
     atom:   36    charge:    1.9471    magn:    0.0000    constr:    0.0000
     atom:   37    charge:    1.9471    magn:    0.0000    constr:    0.0000
     atom:   38    charge:    3.1196    magn:    0.0000    constr:    0.0000
     atom:   39    charge:    1.9549    magn:   -0.0000    constr:    0.0000
     atom:   40    charge:    1.9383    magn:   -0.0000    constr:    0.0000
     atom:   41    charge:    1.9505    magn:   -0.0000    constr:    0.0000
     atom:   42    charge:    3.1141    magn:    0.0000    constr:    0.0000
     atom:   43    charge:    1.9413    magn:   -0.0000    constr:    0.0000
     atom:   44    charge:    1.9517    magn:   -0.0000    constr:    0.0000
     atom:   45    charge:    1.9468    magn:   -0.0000    constr:    0.0000
     atom:   46    charge:    3.1165    magn:    0.0000    constr:    0.0000
     atom:   47    charge:    1.9431    magn:   -0.0000    constr:    0.0000
     atom:   48    charge:    1.9444    magn:   -0.0000    constr:    0.0000
     atom:   49    charge:    0.6548    magn:   -0.0000    constr:    0.0000
     atom:   50    charge:    1.9577    magn:   -0.0000    constr:    0.0000
     atom:   51    charge:    0.4023    magn:    0.0000    constr:    0.0000
     atom:   52    charge:    0.4005    magn:    0.0000    constr:    0.0000
     atom:   53    charge:    0.4029    magn:    0.0000    constr:    0.0000
     atom:   54    charge:    0.3901    magn:    0.0000    constr:    0.0000

     total cpu time spent up to now is     2084.7 secs

     total energy              =   -3021.41942240 Ry
     Harris-Foulkes estimate   =   -3021.41942252 Ry
     estimated scf accuracy    <       0.00000282 Ry

     total magnetization       =     0.00 Bohr mag/cell
     absolute magnetization    =     0.00 Bohr mag/cell

     iteration #  7     ecut=    40.42 Ry     beta=0.10
     Davidson diagonalization with overlap
     ethr =  7.08E-10,  avg # of iterations =  2.6

     negative rho (up, down):  1.207E-02 1.207E-02
 
     Magnetic moment per site:
     atom:    1    charge:    3.1250    magn:   -0.0000    constr:    0.0000
     atom:    2    charge:    1.9452    magn:    0.0000    constr:    0.0000
     atom:    3    charge:    3.1198    magn:    0.0000    constr:    0.0000
     atom:    4    charge:    1.9504    magn:   -0.0000    constr:    0.0000
     atom:    5    charge:    3.1166    magn:    0.0000    constr:    0.0000
     atom:    6    charge:    1.9476    magn:   -0.0000    constr:    0.0000
     atom:    7    charge:    3.1157    magn:    0.0000    constr:    0.0000
     atom:    8    charge:    1.9452    magn:   -0.0000    constr:    0.0000
     atom:    9    charge:    3.1250    magn:   -0.0000    constr:    0.0000
     atom:   10    charge:    1.9452    magn:    0.0000    constr:    0.0000
     atom:   11    charge:    3.1197    magn:    0.0000    constr:    0.0000
     atom:   12    charge:    1.9504    magn:   -0.0000    constr:    0.0000
     atom:   13    charge:    3.1158    magn:    0.0000    constr:    0.0000
     atom:   14    charge:    1.9587    magn:   -0.0000    constr:    0.0000
     atom:   15    charge:    3.1188    magn:    0.0000    constr:    0.0000
     atom:   16    charge:    1.9446    magn:   -0.0000    constr:    0.0000
     atom:   17    charge:    1.9184    magn:    0.0001    constr:    0.0000
     atom:   18    charge:    3.1239    magn:   -0.0000    constr:    0.0000
     atom:   19    charge:    1.9408    magn:   -0.0000    constr:    0.0000
     atom:   20    charge:    1.9471    magn:    0.0000    constr:    0.0000
     atom:   21    charge:    1.9471    magn:    0.0000    constr:    0.0000
     atom:   22    charge:    3.1196    magn:    0.0000    constr:    0.0000
     atom:   23    charge:    1.9566    magn:   -0.0000    constr:    0.0000
     atom:   24    charge:    1.9379    magn:   -0.0000    constr:    0.0000
     atom:   25    charge:    1.9505    magn:   -0.0000    constr:    0.0000
     atom:   26    charge:    3.1145    magn:    0.0000    constr:    0.0000
     atom:   27    charge:    1.9398    magn:   -0.0000    constr:    0.0000
     atom:   28    charge:    1.9517    magn:   -0.0000    constr:    0.0000
     atom:   29    charge:    1.9476    magn:   -0.0000    constr:    0.0000
     atom:   30    charge:    3.1167    magn:    0.0000    constr:    0.0000
     atom:   31    charge:    1.9447    magn:   -0.0000    constr:    0.0000
     atom:   32    charge:    1.9440    magn:   -0.0000    constr:    0.0000
     atom:   33    charge:    1.9184    magn:    0.0001    constr:    0.0000
     atom:   34    charge:    3.1239    magn:   -0.0000    constr:    0.0000
     atom:   35    charge:    1.9408    magn:   -0.0000    constr:    0.0000
     atom:   36    charge:    1.9471    magn:    0.0000    constr:    0.0000
     atom:   37    charge:    1.9471    magn:    0.0000    constr:    0.0000
     atom:   38    charge:    3.1196    magn:    0.0000    constr:    0.0000
     atom:   39    charge:    1.9549    magn:   -0.0000    constr:    0.0000
     atom:   40    charge:    1.9383    magn:   -0.0000    constr:    0.0000
     atom:   41    charge:    1.9505    magn:   -0.0000    constr:    0.0000
     atom:   42    charge:    3.1141    magn:    0.0000    constr:    0.0000
     atom:   43    charge:    1.9413    magn:   -0.0000    constr:    0.0000
     atom:   44    charge:    1.9517    magn:   -0.0000    constr:    0.0000
     atom:   45    charge:    1.9468    magn:   -0.0000    constr:    0.0000
     atom:   46    charge:    3.1165    magn:    0.0000    constr:    0.0000
     atom:   47    charge:    1.9431    magn:   -0.0000    constr:    0.0000
     atom:   48    charge:    1.9444    magn:   -0.0000    constr:    0.0000
     atom:   49    charge:    0.6546    magn:   -0.0000    constr:    0.0000
     atom:   50    charge:    1.9579    magn:   -0.0000    constr:    0.0000
     atom:   51    charge:    0.4023    magn:    0.0000    constr:    0.0000
     atom:   52    charge:    0.4005    magn:    0.0000    constr:    0.0000
     atom:   53    charge:    0.4030    magn:    0.0000    constr:    0.0000
     atom:   54    charge:    0.3901    magn:    0.0000    constr:    0.0000

     total cpu time spent up to now is     2283.9 secs

     total energy              =   -3021.41942202 Ry
     Harris-Foulkes estimate   =   -3021.41942245 Ry
     estimated scf accuracy    <       0.00000141 Ry

     total magnetization       =     0.00 Bohr mag/cell
     absolute magnetization    =     0.00 Bohr mag/cell

     iteration #  8     ecut=    40.42 Ry     beta=0.10
     Davidson diagonalization with overlap
     ethr =  3.54E-10,  avg # of iterations =  4.0

     negative rho (up, down):  1.207E-02 1.207E-02
 
     Magnetic moment per site:
     atom:    1    charge:    3.1250    magn:   -0.0000    constr:    0.0000
     atom:    2    charge:    1.9451    magn:    0.0000    constr:    0.0000
     atom:    3    charge:    3.1198    magn:    0.0000    constr:    0.0000
     atom:    4    charge:    1.9504    magn:   -0.0000    constr:    0.0000
     atom:    5    charge:    3.1166    magn:    0.0000    constr:    0.0000
     atom:    6    charge:    1.9476    magn:   -0.0000    constr:    0.0000
     atom:    7    charge:    3.1157    magn:    0.0000    constr:    0.0000
     atom:    8    charge:    1.9452    magn:   -0.0000    constr:    0.0000
     atom:    9    charge:    3.1250    magn:   -0.0000    constr:    0.0000
     atom:   10    charge:    1.9452    magn:    0.0000    constr:    0.0000
     atom:   11    charge:    3.1197    magn:    0.0000    constr:    0.0000
     atom:   12    charge:    1.9504    magn:   -0.0000    constr:    0.0000
     atom:   13    charge:    3.1158    magn:    0.0000    constr:    0.0000
     atom:   14    charge:    1.9587    magn:   -0.0000    constr:    0.0000
     atom:   15    charge:    3.1188    magn:    0.0000    constr:    0.0000
     atom:   16    charge:    1.9445    magn:   -0.0000    constr:    0.0000
     atom:   17    charge:    1.9184    magn:    0.0001    constr:    0.0000
     atom:   18    charge:    3.1239    magn:   -0.0000    constr:    0.0000
     atom:   19    charge:    1.9408    magn:   -0.0000    constr:    0.0000
     atom:   20    charge:    1.9471    magn:    0.0000    constr:    0.0000
     atom:   21    charge:    1.9471    magn:    0.0000    constr:    0.0000
     atom:   22    charge:    3.1196    magn:    0.0000    constr:    0.0000
     atom:   23    charge:    1.9566    magn:   -0.0000    constr:    0.0000
     atom:   24    charge:    1.9379    magn:   -0.0000    constr:    0.0000
     atom:   25    charge:    1.9505    magn:   -0.0000    constr:    0.0000
     atom:   26    charge:    3.1145    magn:    0.0000    constr:    0.0000
     atom:   27    charge:    1.9398    magn:   -0.0000    constr:    0.0000
     atom:   28    charge:    1.9517    magn:   -0.0000    constr:    0.0000
     atom:   29    charge:    1.9476    magn:   -0.0000    constr:    0.0000
     atom:   30    charge:    3.1167    magn:    0.0000    constr:    0.0000
     atom:   31    charge:    1.9447    magn:   -0.0000    constr:    0.0000
     atom:   32    charge:    1.9440    magn:   -0.0000    constr:    0.0000
     atom:   33    charge:    1.9184    magn:    0.0001    constr:    0.0000
     atom:   34    charge:    3.1239    magn:   -0.0000    constr:    0.0000
     atom:   35    charge:    1.9408    magn:   -0.0000    constr:    0.0000
     atom:   36    charge:    1.9471    magn:    0.0000    constr:    0.0000
     atom:   37    charge:    1.9471    magn:    0.0000    constr:    0.0000
     atom:   38    charge:    3.1196    magn:    0.0000    constr:    0.0000
     atom:   39    charge:    1.9549    magn:   -0.0000    constr:    0.0000
     atom:   40    charge:    1.9383    magn:   -0.0000    constr:    0.0000
     atom:   41    charge:    1.9505    magn:   -0.0000    constr:    0.0000
     atom:   42    charge:    3.1141    magn:    0.0000    constr:    0.0000
     atom:   43    charge:    1.9413    magn:   -0.0000    constr:    0.0000
     atom:   44    charge:    1.9517    magn:   -0.0000    constr:    0.0000
     atom:   45    charge:    1.9468    magn:   -0.0000    constr:    0.0000
     atom:   46    charge:    3.1165    magn:    0.0000    constr:    0.0000
     atom:   47    charge:    1.9431    magn:   -0.0000    constr:    0.0000
     atom:   48    charge:    1.9444    magn:   -0.0000    constr:    0.0000
     atom:   49    charge:    0.6548    magn:   -0.0000    constr:    0.0000
     atom:   50    charge:    1.9577    magn:   -0.0000    constr:    0.0000
     atom:   51    charge:    0.4023    magn:    0.0000    constr:    0.0000
     atom:   52    charge:    0.4006    magn:    0.0000    constr:    0.0000
     atom:   53    charge:    0.4030    magn:    0.0000    constr:    0.0000
     atom:   54    charge:    0.3901    magn:    0.0000    constr:    0.0000

     total cpu time spent up to now is     2510.8 secs

     End of self-consistent calculation

 ------ SPIN UP ------------


          k = 0.0000 0.0000 0.0000 ( 34665 PWs)   bands (ev):

   -57.7010 -57.6660 -57.3207 -57.2844 -57.2356 -57.1123 -57.0759 -57.0750
   -57.0542 -57.0403 -56.9931 -56.9576 -56.7340 -56.6965 -56.1515 -56.1162
   -34.1371 -33.9832 -33.9547 -33.9020 -33.8729 -33.8077 -33.7472 -33.6565
   -33.6214 -33.6078 -33.5703 -33.5436 -33.5216 -33.5106 -33.4927 -33.4887
   -33.4679 -33.4573 -33.4344 -33.4014 -33.3267 -33.2946 -33.2744 -33.2651
   -33.2582 -33.2573 -33.2465 -33.2457 -33.2397 -33.2325 -33.2322 -33.2151
   -33.1834 -33.1831 -33.1773 -33.1439 -33.1213 -33.0000 -32.9819 -32.9610
   -32.9116 -32.8087 -32.5693 -32.5038 -32.4777 -32.3735 -32.2818 -32.1735
   -20.3043 -18.0155 -17.8437 -17.5598 -17.4649 -17.3757 -17.2547 -17.0803
   -17.0686 -16.9774 -16.9412 -16.8864 -16.7870 -16.7807 -16.7326 -16.7101
   -16.7066 -16.6656 -16.6134 -16.6080 -16.5386 -16.4186 -16.4059 -16.4005
   -16.3248 -16.2704 -16.1974 -16.1701 -16.1524 -15.9828 -15.9329 -14.7359
   -14.6522 -11.4253  -7.2056  -5.4770  -5.3979  -5.3182  -5.2082  -5.1843
    -5.1485  -5.1294  -4.8418  -4.8191  -4.4745  -4.4458  -4.3619  -4.3582
    -4.3244  -4.2348  -4.0926  -4.0635  -4.0582  -4.0203  -4.0022  -3.9939
    -3.9628  -3.9551  -3.9536  -3.8426  -3.7912  -3.7688  -3.7392  -3.7205
    -3.6351  -3.6199  -3.5902  -3.5807  -3.5224  -3.5101  -3.4113  -3.3954
    -3.3732  -3.2669  -3.2371  -3.1875  -3.0162  -2.9383  -2.8810  -2.8338
    -2.6971  -2.6104  -2.5925  -2.5823  -2.5780  -2.5718  -2.4346  -2.4171
    -2.3385  -2.2717  -2.2497  -2.2074  -2.2032  -2.1683  -2.1415  -2.0957
    -2.0506  -2.0316  -2.0231  -1.8884  -1.8685  -1.7641  -1.7390  -1.6266
    -1.5461  -1.5438  -1.4933  -1.4836  -1.4658  -1.4261  -1.3263  -1.3120
    -1.3051  -1.2827  -1.2456  -1.1387  -1.0892  -1.0825  -1.0702  -1.0232
    -0.9573  -0.9185  -0.8223  -0.7675  -0.6130  -0.5901  -0.5716  -0.4825
    -0.3793  -0.2442  -0.0870  -0.0292   0.1291   0.2461   0.2597   1.6405
     1.6728   1.9831   1.9999   2.0625   2.0920   2.2024   2.2410   2.2841
     2.4270   2.4945   2.5233   2.5286   2.5395   2.6284   2.6465   2.6548
     2.7126   2.7969   2.8240   2.8359   2.9079   2.9967   3.0303   3.0961
     3.1030   3.1110   3.1586   3.1995   3.2053   3.2245   3.2371   3.2485
     3.2585   3.2860   3.3936   3.4295   3.4537   3.4633   3.5262   3.5828
     3.6501   3.6921   3.8048   3.9763   4.0129   4.0885   4.1779   4.3178
     4.3355   4.3897   4.5804   4.5969   4.8072   4.8358   5.0845   5.1639
     5.2434   5.3285   5.4777   5.5150   5.5254   5.5900   5.6757   5.7087
     5.7973   5.8625   5.8738   5.8839   5.9518   6.0386   6.0459   6.0706
     6.1424   6.2266   6.2401   6.2942   6.3757   6.5806   6.6331   6.7543
     6.8375   6.9957   7.0339   7.1528   7.3003   7.5725   7.9040   8.2512
     8.3094   8.6816   8.7930   8.8744   8.9351   9.0073   9.1774   9.2526
     9.3511   9.3811   9.5325

          k = 0.0000 0.0280 0.0000 ( 34717 PWs)   bands (ev):

   -57.6986 -57.6684 -57.3183 -57.2868 -57.2352 -57.1101 -57.0780 -57.0729
   -57.0546 -57.0426 -56.9907 -56.9600 -56.7315 -56.6990 -56.1491 -56.1186
   -34.1117 -33.9812 -33.9565 -33.8958 -33.8470 -33.8142 -33.7742 -33.6338
   -33.6145 -33.5828 -33.5449 -33.5407 -33.5236 -33.5036 -33.4956 -33.4872
   -33.4746 -33.4650 -33.4324 -33.3945 -33.3206 -33.2928 -33.2881 -33.2666
   -33.2625 -33.2558 -33.2534 -33.2422 -33.2405 -33.2388 -33.2384 -33.2209
   -33.2052 -33.1882 -33.1801 -33.1479 -33.1447 -32.9961 -32.9805 -32.9623
   -32.9166 -32.8367 -32.5436 -32.5021 -32.4796 -32.3674 -32.2881 -32.2010
   -20.3042 -17.9537 -17.7861 -17.5069 -17.4128 -17.3321 -17.2280 -17.0944
   -17.0383 -17.0007 -16.9956 -16.8883 -16.8225 -16.7646 -16.7106 -16.6924
   -16.6786 -16.6682 -16.6601 -16.6441 -16.5976 -16.4424 -16.3873 -16.3706
   -16.3515 -16.2999 -16.2144 -16.1769 -16.1560 -16.0136 -15.9699 -14.7460
   -14.6756 -11.4249  -7.2052  -5.4424  -5.3167  -5.2562  -5.1884  -5.1334
    -5.0712  -5.0502  -4.7662  -4.7054  -4.4385  -4.4030  -4.3965  -4.3148
    -4.3040  -4.1622  -4.1270  -4.1165  -4.0942  -4.0732  -4.0351  -4.0330
    -3.9682  -3.9641  -3.9527  -3.8945  -3.8560  -3.8493  -3.8409  -3.7686
    -3.7238  -3.7098  -3.6684  -3.6185  -3.5781  -3.5590  -3.4323  -3.3583
    -3.3083  -3.2376  -3.2005  -3.1054  -2.9370  -2.8738  -2.7468  -2.7274
    -2.6161  -2.6025  -2.5277  -2.5125  -2.4809  -2.4430  -2.4147  -2.4106
    -2.3894  -2.3648  -2.2905  -2.2795  -2.1706  -2.1450  -2.1389  -2.0973
    -2.0247  -2.0001  -1.9568  -1.8793  -1.8130  -1.7698  -1.7099  -1.6851
    -1.6457  -1.6288  -1.5667  -1.5284  -1.4840  -1.4413  -1.4385  -1.3989
    -1.3574  -1.2738  -1.2211  -1.2164  -1.1620  -1.0926  -1.0723  -1.0249
    -1.0120  -0.9071  -0.8693  -0.7937  -0.7636  -0.7092  -0.6109  -0.5943
    -0.3976  -0.2725  -0.0937  -0.0835   0.1440   0.1996   0.2263   1.7267
     1.7727   1.9837   2.0620   2.1273   2.1490   2.2157   2.2716   2.3101
     2.4216   2.4587   2.4969   2.5325   2.5832   2.6008   2.6275   2.6889
     2.7299   2.7676   2.7941   2.9092   2.9196   2.9481   2.9730   3.0076
     3.1081   3.1137   3.1321   3.1724   3.1899   3.2025   3.2552   3.3013
     3.3331   3.3684   3.4039   3.4704   3.5035   3.5496   3.5587   3.6467
     3.6620   3.6825   3.7685   3.9569   4.0309   4.1095   4.1886   4.2831
     4.3210   4.3942   4.5387   4.6838   4.8605   4.9223   5.0882   5.2557
     5.3014   5.3330   5.5347   5.5663   5.6003   5.6224   5.6829   5.7184
     5.7818   5.7898   5.8487   5.8751   5.8965   5.9456   6.0672   6.1205
     6.1473   6.1540   6.1747   6.2044   6.2727   6.5561   6.5998   6.6926
     6.8418   6.9439   6.9717   7.0808   7.2291   7.5765   7.9086   8.0039
     8.0588   8.4516   8.5611   8.8371   8.9068   8.9972   9.0874   9.1272
     9.2695   9.4349   9.4884

          k = 0.0000 0.0560 0.0000 ( 34721 PWs)   bands (ev):

   -57.6923 -57.6748 -57.3117 -57.2934 -57.2344 -57.1040 -57.0841 -57.0666
   -57.0555 -57.0491 -56.9843 -56.9665 -56.7249 -56.7056 -56.1427 -56.1251
   -34.0419 -33.9759 -33.9616 -33.8787 -33.8472 -33.8316 -33.7760 -33.5989
   -33.5760 -33.5749 -33.5378 -33.5303 -33.5090 -33.5070 -33.4798 -33.4749
   -33.4594 -33.4296 -33.4218 -33.3750 -33.3194 -33.3155 -33.3154 -33.3041
   -33.2885 -33.2788 -33.2703 -33.2671 -33.2560 -33.2494 -33.2368 -33.2346
   -33.2132 -33.2013 -33.1736 -33.1682 -33.1296 -32.9911 -32.9769 -32.9656
   -32.9296 -32.9064 -32.4973 -32.4843 -32.4729 -32.3509 -32.3050 -32.2751
   -20.3039 -17.7826 -17.6275 -17.3755 -17.2788 -17.2632 -17.2219 -17.1693
   -17.1390 -16.9654 -16.9554 -16.9211 -16.8765 -16.8230 -16.7914 -16.7278
   -16.7186 -16.6871 -16.6285 -16.5995 -16.5432 -16.5078 -16.4263 -16.3806
   -16.3655 -16.3043 -16.2435 -16.1979 -16.1596 -16.1141 -16.0428 -14.7642
   -14.7262 -11.4241  -7.2042  -5.4096  -5.1994  -5.0788  -5.0408  -4.9273
    -4.8611  -4.8275  -4.5644  -4.5083  -4.4759  -4.4205  -4.4118  -4.3694
    -4.3344  -4.2623  -4.2378  -4.2145  -4.1987  -4.1895  -4.1586  -4.0780
    -4.0606  -4.0088  -3.9906  -3.9716  -3.9331  -3.8943  -3.8595  -3.8200
    -3.7999  -3.7338  -3.6382  -3.5883  -3.4362  -3.4294  -3.3249  -3.2711
    -3.2416  -3.2135  -3.1950  -3.0847  -2.8923  -2.8459  -2.8397  -2.8015
    -2.7245  -2.6709  -2.5500  -2.4760  -2.4460  -2.3248  -2.3187  -2.3139
    -2.3061  -2.2521  -2.2099  -2.1821  -2.1502  -2.1203  -2.0345  -2.0133
    -1.9639  -1.9505  -1.9204  -1.9075  -1.8860  -1.8519  -1.8199  -1.7854
    -1.7480  -1.6972  -1.6281  -1.5449  -1.5301  -1.5126  -1.4588  -1.4228
    -1.3834  -1.3674  -1.3530  -1.2935  -1.2421  -1.2199  -1.1584  -1.1054
    -1.0849  -1.0264  -0.9262  -0.8937  -0.8537  -0.7877  -0.7663  -0.6624
    -0.5899  -0.4661  -0.2450   0.0890   0.1412   0.1763   0.1830   1.8624
     2.0223   2.0945   2.1068   2.2064   2.2315   2.2668   2.3634   2.3863
     2.3935   2.4083   2.4311   2.4735   2.5009   2.5347   2.6713   2.6922
     2.7306   2.7726   2.8275   2.9006   2.9124   2.9350   2.9690   2.9700
     3.0121   3.0956   3.1341   3.1541   3.2471   3.2584   3.2831   3.3268
     3.3650   3.3829   3.4379   3.5345   3.5407   3.6331   3.6738   3.7239
     3.7569   3.8206   3.8549   3.8876   3.9284   4.1276   4.1389   4.1559
     4.3226   4.3732   4.5613   4.9033   5.0126   5.0566   5.1717   5.3760
     5.3790   5.4751   5.5149   5.5465   5.6447   5.7196   5.7217   5.7302
     5.7765   5.7847   5.7971   5.8532   5.8824   5.9457   5.9745   5.9892
     5.9982   6.0519   6.1529   6.1682   6.3023   6.3725   6.4093   6.6147
     6.6564   6.7787   6.8670   7.0407   7.2143   7.3336   7.4440   7.7231
     8.0763   8.1975   8.3149   8.6151   8.8817   8.9869   9.3135   9.3303
     9.4259   9.4358   9.5336

          k = 0.0000-0.0840 0.0000 ( 34678 PWs)   bands (ev):

   -57.6836 -57.6834 -57.3043 -57.3009 -57.2340 -57.0985 -57.0896 -57.0579
   -57.0578 -57.0559 -56.9759 -56.9749 -56.7178 -56.7127 -56.1339 -56.1339
   -33.9688 -33.9686 -33.9454 -33.9452 -33.8553 -33.8552 -33.6891 -33.6651
   -33.5690 -33.5657 -33.5318 -33.5210 -33.5166 -33.4801 -33.4564 -33.4273
   -33.4166 -33.4101 -33.3778 -33.3775 -33.3659 -33.3497 -33.3438 -33.3272
   -33.3259 -33.2874 -33.2806 -33.2785 -33.2717 -33.2706 -33.2352 -33.2335
   -33.2186 -33.2168 -33.1667 -33.1659 -33.0525 -33.0316 -32.9738 -32.9685
   -32.9435 -32.9404 -32.4908 -32.4908 -32.3750 -32.3749 -32.3279 -32.3279
   -20.3038 -17.5721 -17.5082 -17.4127 -17.3924 -17.2322 -17.1784 -17.0686
   -17.0648 -17.0189 -17.0064 -16.9925 -16.8751 -16.8418 -16.8418 -16.8035
   -16.7968 -16.5994 -16.5974 -16.5291 -16.5269 -16.4911 -16.4897 -16.4079
   -16.4057 -16.2658 -16.2637 -16.2037 -16.1996 -16.1353 -16.1051 -14.7629
   -14.7628 -11.4237  -7.2036  -5.4011  -5.2054  -4.8028  -4.7355  -4.7345
    -4.6588  -4.6453  -4.6405  -4.6046  -4.5760  -4.5132  -4.5050  -4.4035
    -4.3763  -4.3420  -4.3403  -4.3112  -4.2980  -4.2828  -4.2775  -4.0579
    -4.0358  -4.0265  -4.0137  -3.9953  -3.9458  -3.8128  -3.7960  -3.7897
    -3.7180  -3.6975  -3.6429  -3.5085  -3.4751  -3.3424  -3.3293  -3.2352
    -3.1413  -3.1190  -3.0461  -3.0219  -2.9655  -2.9265  -2.8073  -2.7914
    -2.7007  -2.6963  -2.5798  -2.5420  -2.5159  -2.4978  -2.4808  -2.4500
    -2.4415  -2.4205  -2.3331  -2.2480  -2.0309  -2.0098  -1.9706  -1.9436
    -1.9303  -1.8314  -1.8253  -1.8119  -1.7847  -1.7475  -1.7337  -1.7029
    -1.6683  -1.6434  -1.6174  -1.5617  -1.5190  -1.4903  -1.4838  -1.4562
    -1.4277  -1.4201  -1.4125  -1.3851  -1.3622  -1.3295  -1.2235  -1.1909
    -1.1037  -1.0759  -1.0128  -0.9806  -0.9733  -0.9626  -0.9459  -0.5271
    -0.5221  -0.4599  -0.4458   0.1413   0.1414   0.1840   0.1857   2.0367
     2.0399   2.2156   2.2176   2.2183   2.2336   2.2816   2.3366   2.3448
     2.3449   2.3694   2.3801   2.5245   2.5514   2.5524   2.5979   2.6613
     2.7122   2.7344   2.7473   2.8885   2.9197   2.9870   2.9945   3.0541
     3.0552   3.0991   3.1098   3.1769   3.2148   3.2302   3.2429   3.4007
     3.4234   3.4345   3.4372   3.4700   3.4808   3.7218   3.7627   3.8010
     3.8045   3.8291   3.9063   3.9286   3.9654   4.0712   4.0735   4.1235
     4.1242   4.4141   4.6692   4.9575   4.9979   5.2566   5.3283   5.4543
     5.4861   5.5061   5.5061   5.5644   5.6038   5.6437   5.6624   5.6680
     5.7958   5.8012   5.8230   5.8490   5.8593   5.8641   5.8797   5.9710
     6.0179   6.0560   6.0699   6.1565   6.1940   6.4053   6.4658   6.5632
     6.6026   6.7451   6.7730   6.9793   7.0296   7.1017   7.3261   7.7030
     7.8739   8.1583   8.4095   8.7594   8.8218   8.8358   9.1340   9.6924
     9.7020   9.7389   9.7955

          k = 0.0253 0.0000 0.0000 ( 34707 PWs)   bands (ev):

   -57.7010 -57.6660 -57.3207 -57.2844 -57.2356 -57.1123 -57.0759 -57.0751
   -57.0542 -57.0403 -56.9931 -56.9576 -56.7340 -56.6965 -56.1515 -56.1162
   -34.1374 -33.9832 -33.9547 -33.9013 -33.8730 -33.8077 -33.7473 -33.6572
   -33.6213 -33.6094 -33.5706 -33.5402 -33.5354 -33.5115 -33.4887 -33.4778
   -33.4666 -33.4573 -33.4345 -33.3945 -33.3266 -33.2947 -33.2741 -33.2651
   -33.2614 -33.2607 -33.2469 -33.2439 -33.2428 -33.2326 -33.2322 -33.2149
   -33.1833 -33.1830 -33.1777 -33.1439 -33.1214 -33.0000 -32.9843 -32.9601
   -32.9116 -32.8088 -32.5692 -32.5049 -32.4772 -32.3735 -32.2819 -32.1736
   -20.3041 -17.9857 -17.8038 -17.5175 -17.4360 -17.3591 -17.2613 -17.1466
   -17.0949 -16.9782 -16.9408 -16.8743 -16.8212 -16.8092 -16.7924 -16.7827
   -16.7329 -16.6950 -16.5595 -16.5374 -16.4565 -16.4554 -16.4069 -16.3724
   -16.3423 -16.3150 -16.1859 -16.1679 -16.1537 -15.9826 -15.9327 -14.7348
   -14.6521 -11.4241  -7.2029  -5.4721  -5.3086  -5.2664  -5.1830  -5.1005
    -5.0470  -5.0194  -4.8364  -4.8145  -4.6207  -4.4716  -4.4379  -4.3333
    -4.3140  -4.3041  -4.2508  -4.1011  -4.0396  -4.0358  -3.9993  -3.9470
    -3.9401  -3.9125  -3.8331  -3.8032  -3.7543  -3.7220  -3.6972  -3.6947
    -3.6233  -3.6009  -3.5731  -3.5655  -3.5191  -3.4494  -3.3279  -3.3113
    -3.2532  -3.2335  -3.1806  -3.1090  -3.0364  -2.9792  -2.9258  -2.8982
    -2.7510  -2.6771  -2.6352  -2.6032  -2.5815  -2.5324  -2.5223  -2.5062
    -2.4346  -2.3379  -2.3249  -2.2392  -2.2236  -2.1844  -2.1604  -2.0735
    -2.0120  -2.0026  -1.9656  -1.8847  -1.8525  -1.7558  -1.7425  -1.6531
    -1.5884  -1.5849  -1.5409  -1.4664  -1.4606  -1.3691  -1.3601  -1.3474
    -1.3398  -1.2932  -1.2765  -1.1928  -1.1299  -1.1198  -1.0809  -1.0488
    -0.9753  -0.9178  -0.8324  -0.7882  -0.7769  -0.6537  -0.6456  -0.5530
    -0.4239  -0.2386  -0.1182  -0.0563   0.1150   0.2033   0.2041   1.6598
     1.7229   1.9991   2.0688   2.1461   2.2202   2.2351   2.2672   2.3756
     2.3825   2.4550   2.5017   2.5194   2.5391   2.5758   2.5948   2.6336
     2.6532   2.7314   2.7548   2.8641   2.8810   2.9669   3.0277   3.1007
     3.1190   3.1408   3.1601   3.2009   3.2056   3.2512   3.2674   3.3376
     3.3743   3.3991   3.4481   3.4704   3.5335   3.5572   3.5890   3.5976
     3.6612   3.7269   3.7442   3.9105   3.9985   4.0919   4.1721   4.2733
     4.3722   4.3922   4.5509   4.6687   4.8605   4.9082   4.9233   5.0676
     5.1188   5.1435   5.1855   5.3484   5.5677   5.6179   5.6917   5.8639
     5.8802   5.9220   5.9571   6.0275   6.0773   6.1137   6.1577   6.2067
     6.2164   6.2492   6.2555   6.3055   6.4465   6.5178   6.6365   6.6608
     6.8162   6.8651   7.0321   7.1451   7.3001   7.7485   7.8518   8.0814
     8.3249   8.3353   8.4294   8.6846   8.8440   8.9658   9.1467   9.3417
     9.3618   9.4547   9.4925

          k = 0.0253 0.0280 0.0000 ( 34687 PWs)   bands (ev):

   -57.6986 -57.6684 -57.3183 -57.2868 -57.2352 -57.1100 -57.0780 -57.0730
   -57.0546 -57.0426 -56.9907 -56.9600 -56.7315 -56.6990 -56.1491 -56.1186
   -34.1120 -33.9812 -33.9565 -33.8951 -33.8471 -33.8141 -33.7742 -33.6345
   -33.6146 -33.5844 -33.5452 -33.5374 -33.5248 -33.5191 -33.4959 -33.4753
   -33.4689 -33.4638 -33.4325 -33.3877 -33.3205 -33.2929 -33.2859 -33.2666
   -33.2625 -33.2572 -33.2559 -33.2501 -33.2401 -33.2388 -33.2376 -33.2197
   -33.2053 -33.1882 -33.1802 -33.1478 -33.1446 -32.9962 -32.9827 -32.9615
   -32.9166 -32.8367 -32.5435 -32.5030 -32.4790 -32.3674 -32.2881 -32.2010
   -20.3040 -17.9254 -17.7471 -17.4663 -17.3863 -17.3120 -17.2348 -17.1304
   -17.1006 -17.0088 -16.9654 -16.8614 -16.8324 -16.8087 -16.7870 -16.7727
   -16.7150 -16.7029 -16.6030 -16.5830 -16.5088 -16.4780 -16.3844 -16.3680
   -16.3589 -16.3318 -16.2031 -16.1764 -16.1558 -16.0140 -15.9697 -14.7450
   -14.6757 -11.4236  -7.2024  -5.4458  -5.2444  -5.1874  -5.1834  -5.0241
    -4.9687  -4.9392  -4.7612  -4.7024  -4.5649  -4.4055  -4.3737  -4.3478
    -4.2623  -4.2556  -4.1891  -4.1213  -4.0892  -4.0672  -4.0362  -4.0230
    -3.9785  -3.9450  -3.9155  -3.8704  -3.8246  -3.8125  -3.7867  -3.7218
    -3.7000  -3.6668  -3.6176  -3.6077  -3.5435  -3.5276  -3.3530  -3.2901
    -3.2542  -3.2174  -3.1508  -3.0753  -2.9841  -2.9525  -2.7859  -2.7078
    -2.6822  -2.6386  -2.6129  -2.5373  -2.5059  -2.4568  -2.4503  -2.4231
    -2.4074  -2.3889  -2.3429  -2.3048  -2.2182  -2.1806  -2.1184  -2.1030
    -2.0691  -1.9969  -1.9519  -1.8943  -1.8673  -1.8287  -1.7647  -1.6773
    -1.6478  -1.6193  -1.5913  -1.5648  -1.5119  -1.4645  -1.4429  -1.4028
    -1.3469  -1.3305  -1.2724  -1.2582  -1.2099  -1.1111  -1.1003  -1.0632
    -1.0123  -0.8893  -0.8414  -0.8376  -0.7674  -0.7414  -0.6992  -0.6612
    -0.4349  -0.2834  -0.1368  -0.0877   0.1472   0.1765   0.1867   1.7188
     1.8430   2.0143   2.0961   2.1931   2.2417   2.2795   2.3139   2.3943
     2.4154   2.4644   2.4864   2.5220   2.5307   2.5496   2.5877   2.6716
     2.7027   2.7249   2.7846   2.8040   2.9275   2.9840   3.0073   3.0320
     3.1035   3.1314   3.1435   3.1701   3.2061   3.2394   3.3413   3.3712
     3.4039   3.4337   3.4602   3.5071   3.5496   3.5659   3.6337   3.6590
     3.6711   3.7053   3.7469   3.8919   3.9907   4.1342   4.1832   4.2494
     4.3046   4.4499   4.5073   4.7643   4.9263   4.9486   4.9905   5.0759
     5.1574   5.1730   5.2204   5.3843   5.6413   5.6792   5.7299   5.7757
     5.8522   5.8632   5.8691   6.0042   6.0686   6.0828   6.1165   6.1421
     6.1944   6.2064   6.2171   6.2329   6.4266   6.5237   6.6087   6.6564
     6.7779   6.8633   6.9611   7.1494   7.2245   7.4935   7.9309   8.0258
     8.0925   8.2479   8.4397   8.5745   8.6481   8.7768   8.9320   9.2585
     9.3573   9.4562   9.5073

          k = 0.0253 0.0560 0.0000 ( 34699 PWs)   bands (ev):

   -57.6923 -57.6748 -57.3117 -57.2934 -57.2344 -57.1039 -57.0841 -57.0666
   -57.0555 -57.0491 -56.9843 -56.9665 -56.7249 -56.7056 -56.1427 -56.1251
   -34.0422 -33.9759 -33.9616 -33.8782 -33.8473 -33.8314 -33.7760 -33.5989
   -33.5766 -33.5749 -33.5379 -33.5283 -33.5115 -33.5102 -33.4799 -33.4752
   -33.4584 -33.4296 -33.4165 -33.3696 -33.3199 -33.3162 -33.3110 -33.3040
   -33.2887 -33.2792 -33.2703 -33.2660 -33.2561 -33.2516 -33.2408 -33.2370
   -33.2133 -33.2020 -33.1736 -33.1680 -33.1294 -32.9911 -32.9784 -32.9655
   -32.9296 -32.9063 -32.4980 -32.4841 -32.4728 -32.3509 -32.3050 -32.2751
   -20.3037 -17.7592 -17.5917 -17.3462 -17.2669 -17.2478 -17.1963 -17.1701
   -17.1422 -16.9980 -16.9730 -16.8830 -16.8786 -16.8325 -16.7994 -16.7746
   -16.7504 -16.6733 -16.6263 -16.6078 -16.5818 -16.5332 -16.4294 -16.4153
   -16.3588 -16.2872 -16.2366 -16.1972 -16.1593 -16.1149 -16.0423 -14.7636
   -14.7264 -11.4228  -7.2013  -5.4170  -5.1986  -5.0345  -4.9509  -4.8158
    -4.7594  -4.7177  -4.5607  -4.5009  -4.4932  -4.4164  -4.3963  -4.3420
    -4.2735  -4.2337  -4.2180  -4.1946  -4.1504  -4.1437  -4.1089  -4.0640
    -4.0354  -4.0155  -3.9961  -3.9382  -3.9268  -3.8777  -3.8621  -3.8241
    -3.7769  -3.7179  -3.6571  -3.5741  -3.4755  -3.3958  -3.3214  -3.2838
    -3.2391  -3.2258  -3.1823  -3.0147  -2.9369  -2.8661  -2.8318  -2.7821
    -2.7598  -2.6485  -2.5950  -2.5120  -2.4911  -2.4405  -2.3950  -2.3685
    -2.3452  -2.3268  -2.2910  -2.2661  -2.1922  -2.1433  -2.1301  -2.0424
    -2.0142  -2.0119  -1.9493  -1.9409  -1.9057  -1.8640  -1.8372  -1.8148
    -1.7474  -1.7065  -1.6812  -1.6401  -1.5756  -1.5409  -1.4973  -1.4781
    -1.4334  -1.3759  -1.3412  -1.3052  -1.2259  -1.2083  -1.1332  -1.1081
    -1.0624  -1.0154  -0.9147  -0.8775  -0.8239  -0.8020  -0.7468  -0.6829
    -0.6094  -0.4681  -0.2588   0.0899   0.1265   0.1536   0.1861   1.8597
     2.0460   2.1293   2.1768   2.2287   2.2689   2.3036   2.3446   2.3826
     2.4232   2.4596   2.4780   2.5050   2.5182   2.5811   2.6908   2.7186
     2.7362   2.7741   2.8210   2.8373   2.9012   2.9495   2.9718   2.9831
     3.0245   3.0312   3.1534   3.2046   3.2836   3.3271   3.3375   3.3804
     3.4046   3.4365   3.4579   3.5378   3.5573   3.6281   3.6529   3.7314
     3.7898   3.8167   3.8591   3.8978   3.9023   4.0688   4.1146   4.1632
     4.3409   4.3807   4.6129   4.9621   5.0096   5.1221   5.1390   5.1558
     5.2596   5.2866   5.3104   5.4339   5.5071   5.5592   5.6341   5.7556
     5.8207   5.8475   5.8887   5.9319   5.9589   6.0006   6.0457   6.0599
     6.1335   6.1543   6.2192   6.3254   6.3771   6.4014   6.4804   6.6401
     6.6890   6.7944   6.8451   7.0335   7.1449   7.3627   7.4768   7.5825
     7.9767   8.1768   8.3516   8.5168   8.6465   8.8457   9.0377   9.1100
     9.1807   9.4776   9.6202

          k = 0.0253-0.0840 0.0000 ( 34722 PWs)   bands (ev):

   -57.6836 -57.6834 -57.3043 -57.3009 -57.2340 -57.0985 -57.0896 -57.0579
   -57.0578 -57.0559 -56.9759 -56.9749 -56.7178 -56.7127 -56.1339 -56.1339
   -33.9688 -33.9686 -33.9456 -33.9455 -33.8550 -33.8548 -33.6892 -33.6652
   -33.5690 -33.5657 -33.5323 -33.5208 -33.5165 -33.4801 -33.4556 -33.4274
   -33.4187 -33.4125 -33.3787 -33.3786 -33.3667 -33.3428 -33.3369 -33.3257
   -33.3244 -33.2872 -33.2804 -33.2787 -33.2719 -33.2692 -33.2388 -33.2373
   -33.2203 -33.2185 -33.1667 -33.1659 -33.0524 -33.0316 -32.9744 -32.9693
   -32.9434 -32.9404 -32.4910 -32.4910 -32.3750 -32.3749 -32.3279 -32.3279
   -20.3036 -17.5588 -17.4901 -17.3845 -17.3660 -17.2161 -17.1574 -17.0618
   -17.0525 -17.0071 -16.9828 -16.9784 -16.8914 -16.8815 -16.8718 -16.7882
   -16.7829 -16.6377 -16.6319 -16.5718 -16.5681 -16.5249 -16.5235 -16.3915
   -16.3902 -16.2573 -16.2550 -16.2018 -16.1981 -16.1358 -16.1044 -14.7628
   -14.7627 -11.4224  -7.2008  -5.4085  -5.2047  -4.8030  -4.6478  -4.6377
    -4.6266  -4.5512  -4.5503  -4.5344  -4.5272  -4.4216  -4.4120  -4.3725
    -4.3493  -4.3191  -4.3007  -4.2874  -4.2657  -4.2339  -4.2302  -4.0453
    -4.0415  -4.0173  -3.9861  -3.9675  -3.9232  -3.8506  -3.8450  -3.8188
    -3.7408  -3.6637  -3.6431  -3.4167  -3.4029  -3.3502  -3.3219  -3.2268
    -3.1216  -3.0973  -3.0627  -3.0535  -3.0115  -2.9657  -2.9213  -2.8969
    -2.8115  -2.8075  -2.6255  -2.6054  -2.5797  -2.5610  -2.5327  -2.4684
    -2.4376  -2.3450  -2.3178  -2.2774  -2.1241  -2.0760  -2.0577  -2.0121
    -1.9255  -1.9230  -1.8812  -1.8694  -1.8590  -1.8188  -1.8084  -1.7980
    -1.7700  -1.7319  -1.6888  -1.6600  -1.6234  -1.6102  -1.5976  -1.4790
    -1.4041  -1.3912  -1.2813  -1.2642  -1.2442  -1.2298  -1.1881  -1.1328
    -1.0861  -1.0540  -1.0462  -1.0156  -0.9614  -0.8932  -0.8809  -0.5401
    -0.5323  -0.4603  -0.4478   0.1151   0.1152   0.1945   0.1962   2.0484
     2.0507   2.2147   2.2309   2.2342   2.2372   2.2752   2.3134   2.4211
     2.4232   2.4380   2.4401   2.5556   2.5571   2.5750   2.6524   2.7189
     2.7532   2.8177   2.8265   2.8773   2.8970   2.9354   2.9454   3.0230
     3.0370   3.0827   3.1119   3.2183   3.2662   3.2871   3.3039   3.4200
     3.4256   3.4494   3.4667   3.4914   3.5195   3.7115   3.7372   3.8051
     3.8232   3.8350   3.8832   3.9110   3.9176   4.0788   4.0814   4.1151
     4.1154   4.4697   4.7109   4.9820   5.0212   5.2667   5.2995   5.3078
     5.3256   5.3576   5.3825   5.4236   5.4761   5.5066   5.5506   5.6347
     5.6444   5.7601   5.8309   5.8733   5.8887   6.0126   6.0738   6.0857
     6.1298   6.1829   6.2159   6.2791   6.2995   6.4672   6.5191   6.5936
     6.6359   6.7866   6.7948   6.9893   7.0325   7.1224   7.3829   7.5700
     7.7442   7.9997   8.2704   8.7180   8.7382   8.9704   8.9910   9.2694
     9.3457   9.4481   9.5342

          k = 0.0506 0.0000 0.0000 ( 34729 PWs)   bands (ev):

   -57.7010 -57.6660 -57.3207 -57.2844 -57.2356 -57.1121 -57.0758 -57.0754
   -57.0542 -57.0403 -56.9931 -56.9576 -56.7340 -56.6965 -56.1515 -56.1162
   -34.1381 -33.9832 -33.9548 -33.8999 -33.8733 -33.8078 -33.7473 -33.6587
   -33.6213 -33.6127 -33.5711 -33.5522 -33.5323 -33.5117 -33.4886 -33.4641
   -33.4614 -33.4565 -33.4345 -33.3778 -33.3264 -33.2949 -33.2735 -33.2699
   -33.2652 -33.2641 -33.2639 -33.2401 -33.2376 -33.2327 -33.2323 -33.2144
   -33.1831 -33.1828 -33.1783 -33.1439 -33.1215 -33.0000 -32.9894 -32.9582
   -32.9117 -32.8089 -32.5691 -32.5070 -32.4760 -32.3734 -32.2819 -32.1737
   -20.3038 -17.9197 -17.7088 -17.4187 -17.3934 -17.2859 -17.2687 -17.2395
   -17.1425 -16.9813 -16.9706 -16.9400 -16.8977 -16.8893 -16.8713 -16.8480
   -16.7540 -16.7032 -16.5396 -16.4588 -16.4524 -16.4131 -16.4081 -16.3623
   -16.3567 -16.3299 -16.1781 -16.1628 -16.1563 -15.9827 -15.9323 -14.7326
   -14.6518 -11.4216  -7.1973  -5.4803  -5.2950  -5.1809  -4.9821  -4.9163
    -4.8048  -4.8009  -4.7743  -4.7513  -4.7166  -4.6353  -4.5276  -4.4673
    -4.4219  -4.2506  -4.1348  -4.0428  -4.0280  -4.0223  -3.9769  -3.9326
    -3.9141  -3.8313  -3.7910  -3.7644  -3.7553  -3.6614  -3.6403  -3.6163
    -3.5586  -3.5565  -3.5439  -3.5292  -3.5025  -3.2850  -3.2815  -3.2665
    -3.2430  -3.2050  -3.1588  -3.1130  -2.9975  -2.9446  -2.8851  -2.8542
    -2.8302  -2.7811  -2.7596  -2.6810  -2.6260  -2.6142  -2.5794  -2.5498
    -2.4654  -2.4623  -2.4298  -2.3683  -2.3162  -2.2092  -2.2011  -2.1236
    -2.0891  -1.9941  -1.9417  -1.9348  -1.8454  -1.8203  -1.8038  -1.7167
    -1.6391  -1.5775  -1.5607  -1.5576  -1.4891  -1.4809  -1.4459  -1.4030
    -1.3549  -1.3363  -1.3067  -1.2145  -1.1222  -1.1085  -1.0906  -1.0739
    -0.9926  -0.9562  -0.8914  -0.8178  -0.8122  -0.7963  -0.7600  -0.5346
    -0.5267  -0.2707  -0.2258  -0.0494   0.0907   0.1168   0.1352   1.6397
     1.8161   1.9980   2.0940   2.0981   2.1766   2.1940   2.2783   2.2911
     2.4511   2.4549   2.4674   2.5566   2.5607   2.5823   2.6231   2.6757
     2.7047   2.8195   2.8676   2.8705   2.8962   2.9205   3.0804   3.1049
     3.1453   3.1611   3.1981   3.1987   3.2844   3.2857   3.3286   3.4056
     3.4356   3.4452   3.4973   3.5504   3.5740   3.5835   3.6968   3.7082
     3.7564   3.7599   3.7963   3.8907   3.9216   4.0782   4.1552   4.2071
     4.3451   4.4632   4.5718   4.6483   4.7656   4.7950   4.8577   4.8867
[...]
    -1.3002  -1.2694  -1.2526  -1.1922  -1.1541  -1.0339  -1.0223  -1.0141
    -0.9913  -0.9515  -0.9080  -0.8410  -0.7595  -0.7040  -0.6493  -0.5963
    -0.5922  -0.5374  -0.5208   0.0641   0.0642   0.2088   0.2105   2.1513
     2.1521   2.1987   2.2006   2.2354   2.2363   2.2635   2.2950   2.4856
     2.4913   2.5227   2.5524   2.6063   2.6139   2.6772   2.6792   2.6883
     2.6895   2.8412   2.9069   2.9804   2.9952   3.0315   3.0391   3.0953
     3.2170   3.2468   3.2697   3.3301   3.3709   3.3877   3.4421   3.4899
     3.4975   3.5199   3.5462   3.5781   3.6008   3.6769   3.6967   3.7419
     3.8317   3.8880   3.9042   3.9508   3.9511   4.0941   4.1009   4.1097
     4.1101   4.6106   4.7810   4.7850   4.7996   4.8677   4.9179   4.9230
     4.9391   4.9814   5.0237   5.2462   5.3372   5.3560   5.3667   5.7287
     5.7964   5.9071   5.9241   5.9770   6.0353   6.1365   6.3008   6.3467
     6.3616   6.3718   6.4074   6.5720   6.6207   6.6631   6.6632   6.7003
     6.7602   6.8432   6.8442   6.8503   6.8512   7.3598   7.4111   7.5269
     7.6632   7.8229   8.0090   8.1709   8.2216   8.3166   8.3837   8.8270
     8.9106   9.0467   9.0809

          k =-0.0253 0.0280 0.0000 ( 34687 PWs)   bands (ev):

   -57.6987 -57.6685 -57.3182 -57.2867 -57.2352 -57.1100 -57.0780 -57.0730
   -57.0545 -57.0426 -56.9907 -56.9600 -56.7315 -56.6989 -56.1493 -56.1188
   -34.1121 -33.9813 -33.9566 -33.8952 -33.8471 -33.8141 -33.7743 -33.6344
   -33.6145 -33.5844 -33.5452 -33.5374 -33.5248 -33.5190 -33.4958 -33.4752
   -33.4688 -33.4638 -33.4324 -33.3877 -33.3205 -33.2929 -33.2858 -33.2666
   -33.2622 -33.2571 -33.2561 -33.2501 -33.2401 -33.2387 -33.2376 -33.2197
   -33.2053 -33.1882 -33.1801 -33.1477 -33.1446 -32.9962 -32.9826 -32.9615
   -32.9166 -32.8366 -32.5437 -32.5032 -32.4792 -32.3676 -32.2883 -32.2012
   -20.3040 -17.9255 -17.7470 -17.4663 -17.3863 -17.3121 -17.2349 -17.1303
   -17.1008 -17.0084 -16.9654 -16.8619 -16.8324 -16.8096 -16.7866 -16.7726
   -16.7149 -16.7031 -16.6028 -16.5827 -16.5089 -16.4780 -16.3845 -16.3681
   -16.3590 -16.3318 -16.2031 -16.1764 -16.1557 -16.0140 -15.9697 -14.7446
   -14.6752 -11.4236  -7.2024  -5.4457  -5.2442  -5.1874  -5.1834  -5.0244
    -4.9687  -4.9395  -4.7613  -4.7031  -4.5648  -4.4052  -4.3737  -4.3481
    -4.2635  -4.2524  -4.1905  -4.1198  -4.0935  -4.0669  -4.0388  -4.0228
    -3.9773  -3.9433  -3.9168  -3.8713  -3.8247  -3.8141  -3.7867  -3.7218
    -3.7032  -3.6655  -3.6174  -3.6067  -3.5418  -3.5267  -3.3560  -3.2855
    -3.2538  -3.2193  -3.1496  -3.0728  -2.9853  -2.9486  -2.7848  -2.7069
    -2.6818  -2.6390  -2.6127  -2.5347  -2.5069  -2.4541  -2.4499  -2.4253
    -2.4083  -2.3872  -2.3423  -2.3038  -2.2202  -2.1780  -2.1239  -2.1063
    -2.0650  -1.9932  -1.9531  -1.8971  -1.8659  -1.8296  -1.7455  -1.7108
    -1.6553  -1.6016  -1.5956  -1.5624  -1.5183  -1.4729  -1.4385  -1.3959
    -1.3470  -1.3351  -1.2836  -1.2451  -1.1997  -1.1118  -1.1002  -1.0614
    -1.0132  -0.8947  -0.8432  -0.8328  -0.7581  -0.7411  -0.7115  -0.6621
    -0.4358  -0.2834  -0.1373  -0.0875   0.1474   0.1769   0.1871   1.7187
     1.8429   2.0142   2.0976   2.1928   2.2431   2.2827   2.3166   2.4013
     2.4133   2.4474   2.4834   2.5275   2.5305   2.5446   2.6051   2.6660
     2.7029   2.7365   2.7731   2.8094   2.9361   2.9833   3.0016   3.0246
     3.1045   3.1329   3.1440   3.1718   3.2063   3.2367   3.3448   3.3702
     3.4016   3.4174   3.4618   3.5036   3.5585   3.5679   3.6345   3.6588
     3.6708   3.7063   3.7463   3.8907   3.9894   4.1360   4.1832   4.2498
     4.3046   4.4501   4.5075   4.7646   4.9343   4.9478   4.9813   5.0759
     5.1563   5.1726   5.2203   5.3833   5.6428   5.6725   5.7268   5.7852
     5.8503   5.8630   5.8700   6.0032   6.0714   6.0758   6.1211   6.1428
     6.1944   6.2052   6.2133   6.2410   6.4265   6.5225   6.6082   6.6621
     6.7836   6.8568   6.9611   7.1495   7.2247   7.5004   7.9309   8.0284
     8.0925   8.2373   8.4418   8.5727   8.6431   8.7696   8.9445   9.2467
     9.3527   9.4663   9.5036

          k =-0.0253 0.0560 0.0000 ( 34699 PWs)   bands (ev):

   -57.6924 -57.6749 -57.3117 -57.2933 -57.2343 -57.1039 -57.0841 -57.0666
   -57.0554 -57.0490 -56.9842 -56.9665 -56.7249 -56.7056 -56.1429 -56.1253
   -34.0423 -33.9760 -33.9617 -33.8783 -33.8474 -33.8315 -33.7760 -33.5989
   -33.5766 -33.5749 -33.5379 -33.5282 -33.5115 -33.5102 -33.4798 -33.4752
   -33.4583 -33.4295 -33.4164 -33.3696 -33.3198 -33.3162 -33.3110 -33.3039
   -33.2887 -33.2792 -33.2703 -33.2659 -33.2560 -33.2517 -33.2408 -33.2369
   -33.2132 -33.2019 -33.1736 -33.1680 -33.1294 -32.9911 -32.9783 -32.9656
   -32.9295 -32.9063 -32.4982 -32.4843 -32.4730 -32.3510 -32.3052 -32.2753
   -20.3038 -17.7592 -17.5917 -17.3462 -17.2669 -17.2480 -17.1965 -17.1701
   -17.1420 -16.9980 -16.9730 -16.8831 -16.8788 -16.8331 -16.7998 -16.7746
   -16.7502 -16.6731 -16.6262 -16.6075 -16.5818 -16.5335 -16.4294 -16.4154
   -16.3589 -16.2872 -16.2366 -16.1973 -16.1593 -16.1150 -16.0423 -14.7631
   -14.7260 -11.4228  -7.2013  -5.4170  -5.1986  -5.0341  -4.9509  -4.8164
    -4.7594  -4.7178  -4.5607  -4.4992  -4.4937  -4.4161  -4.3965  -4.3468
    -4.2738  -4.2349  -4.2176  -4.1948  -4.1502  -4.1431  -4.1102  -4.0641
    -4.0342  -4.0129  -3.9973  -3.9393  -3.9266  -3.8758  -3.8658  -3.8247
    -3.7764  -3.7161  -3.6580  -3.5743  -3.4747  -3.3953  -3.3265  -3.2835
    -3.2402  -3.2197  -3.1770  -3.0158  -2.9345  -2.8670  -2.8287  -2.7855
    -2.7574  -2.6476  -2.5940  -2.5127  -2.4895  -2.4416  -2.3965  -2.3650
    -2.3455  -2.3264  -2.2935  -2.2684  -2.1921  -2.1432  -2.1291  -2.0394
    -2.0229  -2.0055  -1.9478  -1.9451  -1.9070  -1.8642  -1.8329  -1.8096
    -1.7455  -1.7132  -1.6747  -1.6449  -1.5821  -1.5421  -1.5077  -1.4631
    -1.4332  -1.3749  -1.3499  -1.3039  -1.2265  -1.2083  -1.1313  -1.1062
    -1.0628  -1.0164  -0.9269  -0.8786  -0.8165  -0.8022  -0.7407  -0.6825
    -0.6094  -0.4696  -0.2602   0.0902   0.1268   0.1539   0.1864   1.8595
     2.0459   2.1322   2.1768   2.2256   2.2670   2.3043   2.3304   2.3817
     2.4418   2.4565   2.4830   2.5105   2.5186   2.5811   2.6901   2.7216
     2.7420   2.7736   2.8251   2.8384   2.8905   2.9469   2.9680   2.9839
     3.0213   3.0323   3.1675   3.2052   3.2876   3.3140   3.3316   3.3681
     3.4088   3.4342   3.4574   3.5403   3.5570   3.6322   3.6544   3.7320
     3.7902   3.8142   3.8601   3.8961   3.9044   4.0696   4.1146   4.1633
     4.3406   4.3806   4.6136   4.9631   5.0166   5.1186   5.1344   5.1540
     5.2570   5.2845   5.3124   5.4255   5.5089   5.5590   5.6371   5.7600
     5.8220   5.8456   5.8925   5.9341   5.9541   5.9940   6.0502   6.0614
     6.1333   6.1530   6.2266   6.3166   6.3774   6.4084   6.4774   6.6444
     6.6910   6.7942   6.8395   7.0343   7.1486   7.3628   7.4830   7.5875
     7.9739   8.1728   8.3529   8.5182   8.6246   8.8438   9.0418   9.1106
     9.1669   9.4969   9.6247

          k =-0.0506 0.0280 0.0000 ( 34685 PWs)   bands (ev):

   -57.6987 -57.6685 -57.3182 -57.2867 -57.2352 -57.1098 -57.0780 -57.0731
   -57.0545 -57.0426 -56.9907 -56.9600 -56.7315 -56.6989 -56.1494 -56.1188
   -34.1128 -33.9813 -33.9566 -33.8938 -33.8473 -33.8141 -33.7744 -33.6359
   -33.6145 -33.5878 -33.5458 -33.5384 -33.5303 -33.5225 -33.4957 -33.4749
   -33.4614 -33.4516 -33.4324 -33.3715 -33.3202 -33.2932 -33.2815 -33.2679
   -33.2666 -33.2642 -33.2619 -33.2567 -33.2401 -33.2387 -33.2364 -33.2173
   -33.2058 -33.1884 -33.1801 -33.1476 -33.1445 -32.9962 -32.9869 -32.9601
   -32.9166 -32.8366 -32.5436 -32.5050 -32.4783 -32.3676 -32.2883 -32.2012
   -20.3037 -17.8633 -17.6534 -17.3714 -17.3444 -17.2524 -17.2272 -17.2166
   -17.1251 -17.0459 -16.9657 -16.9235 -16.8740 -16.8600 -16.8571 -16.8357
   -16.7662 -16.7470 -16.5621 -16.5309 -16.5072 -16.4404 -16.4178 -16.3793
   -16.3717 -16.3138 -16.1940 -16.1748 -16.1545 -16.0152 -15.9695 -14.7426
   -14.6753 -11.4211  -7.1967  -5.4592  -5.2289  -5.1854  -4.8944  -4.8365
    -4.7229  -4.7074  -4.6780  -4.6579  -4.6328  -4.5115  -4.4301  -4.3479
    -4.3214  -4.3044  -4.1619  -4.1295  -4.0635  -4.0291  -4.0110  -3.9957
    -3.9849  -3.9120  -3.8622  -3.8183  -3.7761  -3.7637  -3.7211  -3.6929
    -3.6582  -3.6358  -3.5853  -3.5540  -3.4460  -3.3156  -3.2790  -3.2634
    -3.2228  -3.1721  -3.1032  -3.0601  -2.9550  -2.9392  -2.8742  -2.8424
    -2.7453  -2.6942  -2.6625  -2.6526  -2.6069  -2.5927  -2.5379  -2.4977
    -2.4394  -2.3898  -2.3833  -2.3380  -2.3111  -2.2569  -2.1820  -2.1385
    -2.1161  -2.0648  -2.0281  -1.9766  -1.9422  -1.9073  -1.8625  -1.8340
    -1.7571  -1.7425  -1.7142  -1.6434  -1.5424  -1.5089  -1.4874  -1.4199
    -1.3698  -1.3501  -1.2819  -1.2630  -1.2398  -1.1491  -1.1141  -1.0155
    -0.9795  -0.8822  -0.8582  -0.8160  -0.7809  -0.7662  -0.7078  -0.6919
    -0.5153  -0.3140  -0.2618  -0.0748   0.1081   0.1375   0.1607   1.7022
     1.9030   2.0584   2.1202   2.1251   2.1704   2.2384   2.3586   2.3699
     2.4039   2.4355   2.5155   2.5651   2.5726   2.6005   2.6813   2.6940
     2.7408   2.8002   2.8306   2.9005   2.9533   2.9791   3.0394   3.0577
     3.0883   3.1579   3.1690   3.1985   3.3000   3.3536   3.3740   3.4077
     3.4433   3.4552   3.5444   3.5835   3.6021   3.6509   3.6740   3.6824
     3.7146   3.7685   3.8165   3.8668   3.9295   4.0558   4.1668   4.2798
     4.2895   4.4209   4.6195   4.6870   4.7624   4.8088   4.8526   4.9787
     5.0096   5.1236   5.2210   5.4665   5.5926   5.6381   5.7172   5.8013
     5.8593   5.8703   5.9230   5.9446   5.9788   6.0902   6.1145   6.1368
     6.2277   6.4295   6.4801   6.5376   6.5755   6.6054   6.6828   6.7397
     6.7941   6.8155   6.9720   7.1159   7.1657   7.3974   7.5669   7.6985
     8.1336   8.1622   8.2427   8.3844   8.7496   8.9609   9.0112   9.0436
     9.3483   9.4358   9.6096

          k =-0.0506 0.0560 0.0000 ( 34596 PWs)   bands (ev):

   -57.6923 -57.6749 -57.3117 -57.2933 -57.2343 -57.1038 -57.0840 -57.0667
   -57.0554 -57.0491 -56.9842 -56.9665 -56.7249 -56.7056 -56.1429 -56.1253
   -34.0428 -33.9760 -33.9617 -33.8771 -33.8475 -33.8311 -33.7761 -33.5988
   -33.5777 -33.5749 -33.5382 -33.5242 -33.5180 -33.5135 -33.4799 -33.4760
   -33.4563 -33.4296 -33.4068 -33.3560 -33.3207 -33.3204 -33.3036 -33.3013
   -33.2889 -33.2791 -33.2701 -33.2636 -33.2563 -33.2561 -33.2501 -33.2420
   -33.2133 -33.2035 -33.1736 -33.1677 -33.1290 -32.9911 -32.9811 -32.9653
   -32.9295 -32.9061 -32.4993 -32.4838 -32.4729 -32.3510 -32.3052 -32.2752
   -20.3034 -17.7088 -17.5027 -17.2939 -17.2422 -17.2005 -17.1759 -17.1645
   -17.0926 -17.0392 -17.0084 -16.9160 -16.8591 -16.8515 -16.8472 -16.8091
   -16.7787 -16.7250 -16.6653 -16.6254 -16.6157 -16.5532 -16.5149 -16.4020
   -16.3462 -16.2657 -16.2288 -16.1958 -16.1586 -16.1166 -16.0414 -14.7619
   -14.7263 -11.4202  -7.1954  -5.4323  -5.1973  -5.0246  -4.6613  -4.6195
    -4.5181  -4.5019  -4.4865  -4.4590  -4.4352  -4.3701  -4.3271  -4.3040
    -4.2282  -4.2082  -4.1485  -4.1345  -4.0854  -4.0698  -4.0487  -4.0393
    -4.0171  -3.9992  -3.9713  -3.9173  -3.8968  -3.8907  -3.8246  -3.7899
    -3.7333  -3.6621  -3.6323  -3.5249  -3.4888  -3.3699  -3.3311  -3.2641
    -3.2582  -3.2475  -3.1336  -3.0132  -2.9354  -2.9066  -2.8531  -2.8319
    -2.7589  -2.7289  -2.6871  -2.6122  -2.5940  -2.5701  -2.5315  -2.4923
    -2.4308  -2.4081  -2.3684  -2.3317  -2.3190  -2.3025  -2.2578  -2.1809
    -2.1553  -2.1237  -2.1169  -2.0799  -2.0501  -2.0049  -1.9866  -1.9043
    -1.8941  -1.8545  -1.8355  -1.7271  -1.6403  -1.6087  -1.5756  -1.4811
    -1.4112  -1.3775  -1.3100  -1.2514  -1.2088  -1.1118  -1.0764  -1.0200
    -1.0045  -0.9392  -0.8555  -0.8221  -0.7728  -0.7589  -0.6954  -0.6594
    -0.6539  -0.5203  -0.3271   0.0761   0.1103   0.1283   0.1918   1.8648
     2.0747   2.1627   2.1968   2.2188   2.2416   2.2960   2.3453   2.3906
     2.4016   2.5353   2.5678   2.5769   2.6053   2.6257   2.6808   2.7523
     2.7800   2.8019   2.8363   2.8785   2.9610   3.0017   3.0259   3.0595
     3.0948   3.1337   3.1653   3.2543   3.3333   3.3649   3.3945   3.4384
     3.4762   3.4972   3.5192   3.5399   3.6127   3.6448   3.7089   3.7421
     3.7772   3.8485   3.8776   3.9174   3.9233   3.9514   4.1098   4.1729
     4.2875   4.4696   4.7226   4.8049   4.8140   4.8940   4.9393   5.0895
     5.1628   5.2283   5.2700   5.3223   5.3695   5.4319   5.4930   5.6236
     5.7783   5.8266   5.8787   5.9493   6.0358   6.1213   6.2147   6.2574
     6.2840   6.3438   6.4137   6.4480   6.5013   6.5765   6.6471   6.7143
     6.7287   6.8229   6.8509   6.9825   7.0492   7.4095   7.4295   7.5759
     7.7457   7.9427   8.0691   8.3831   8.5711   8.6099   8.7343   9.0067
     9.2179   9.3242   9.4470

     the Fermi energy is     0.9951 ev

!    total energy              =   -3021.41942208 Ry
     Harris-Foulkes estimate   =   -3021.41942229 Ry
     estimated scf accuracy    <       0.00000031 Ry

     The total energy is the sum of the following terms:

     one-electron contribution =  -41241.10971035 Ry
     hartree contribution      =   20694.75707200 Ry
     xc contribution           =    -553.67326572 Ry
     ewald contribution        =   18078.60669328 Ry
     smearing contrib. (-TS)   =      -0.00021129 Ry

     total magnetization       =     0.00 Bohr mag/cell
     absolute magnetization    =     0.00 Bohr mag/cell

     convergence has been achieved in   8 iterations

     Forces acting on atoms (Ry/au):


     negative rho (up, down):  1.207E-02 1.207E-02
     atom    1 type  1   force =     0.00001709   -0.00035533   -0.13380907
     atom    2 type  2   force =     0.00000408    0.00002887    0.07214421
     atom    3 type  1   force =    -0.00135681    0.00031039   -0.06099779
     atom    4 type  2   force =     0.00290191    0.00048601    0.00638943
     atom    5 type  1   force =     0.00027075    0.00185640    0.00350495
     atom    6 type  2   force =     0.00006310    0.00000518   -0.00286363
     atom    7 type  1   force =    -0.00031655   -0.00072765    0.00445037
     atom    8 type  2   force =     0.00094547   -0.00021142   -0.00066458
     atom    9 type  1   force =    -0.00002919    0.00001984   -0.13356825
     atom   10 type  2   force =    -0.00006607    0.00006498    0.07132506
     atom   11 type  1   force =    -0.00131936   -0.00024113   -0.05591115
     atom   12 type  2   force =     0.00299373   -0.00006781    0.00610359
     atom   13 type  1   force =     0.00029151   -0.00148494    0.00344137
     atom   14 type  2   force =    -0.00120002   -0.00039053   -0.00286469
     atom   15 type  1   force =    -0.00054497    0.00020285    0.00441554
     atom   16 type  2   force =     0.00057312   -0.00018584   -0.00006207
     atom   17 type  2   force =    -0.00006966   -0.00007155    0.07941430
     atom   18 type  1   force =     0.00013386   -0.00017374    0.11911195
     atom   19 type  2   force =    -0.00010765   -0.00017339   -0.06666981
     atom   20 type  2   force =    -0.06322615    0.00014907   -0.03223377
     atom   21 type  2   force =     0.06320219    0.00001487   -0.03244064
     atom   22 type  1   force =     0.00072273    0.00107951    0.05971576
     atom   23 type  2   force =    -0.00017288    0.00005696   -0.00173096
     atom   24 type  2   force =    -0.00143288   -0.00000379   -0.02324114
     atom   25 type  2   force =    -0.00313068    0.00059057    0.00787326
     atom   26 type  1   force =     0.00063920    0.00029131    0.00458860
     atom   27 type  2   force =     0.00052192    0.00059753   -0.00379611
     atom   28 type  2   force =     0.00013762   -0.00008842   -0.00119319
     atom   29 type  2   force =     0.00021561   -0.00034286   -0.00057976
     atom   30 type  1   force =     0.00028911   -0.00070141    0.00383477
     atom   31 type  2   force =     0.00003937    0.00010179   -0.00261611
     atom   32 type  2   force =     0.00002586   -0.00005626   -0.00118252
     atom   33 type  2   force =    -0.00011879    0.00003803    0.07901873
     atom   34 type  1   force =     0.00006725   -0.00021712    0.11902322
     atom   35 type  2   force =    -0.00030446   -0.00005266   -0.06637066
     atom   36 type  2   force =    -0.06318790   -0.00005457   -0.03232402
     atom   37 type  2   force =     0.06333108   -0.00020394   -0.03247862
     atom   38 type  1   force =     0.00066172   -0.00098131    0.05993247
     atom   39 type  2   force =    -0.00045828    0.00010459   -0.00247481
     atom   40 type  2   force =    -0.00119113    0.00030538   -0.02215143
     atom   41 type  2   force =    -0.00317062   -0.00014956    0.00789939
     atom   42 type  1   force =     0.00051709    0.00006682    0.00370438
     atom   43 type  2   force =     0.00069088    0.00023173   -0.00296739
     atom   44 type  2   force =     0.00022590    0.00010112   -0.00115402
     atom   45 type  2   force =     0.00019187    0.00030795   -0.00060846
     atom   46 type  1   force =     0.00055461    0.00031243    0.00392047
     atom   47 type  2   force =     0.00005984   -0.00032265   -0.00134569
     atom   48 type  2   force =     0.00009353    0.00008646   -0.00091672
     atom   49 type  3   force =     0.00300275    0.02321374    0.01376277
     atom   50 type  2   force =     0.00075759   -0.00112336   -0.00300808
     atom   51 type  4   force =     0.00012297   -0.00002002   -0.00017277
     atom   52 type  4   force =     0.00036249    0.00031618    0.00087656
     atom   53 type  4   force =     0.00083242    0.00329790    0.00088040
     atom   54 type  4   force =    -0.00405616   -0.02583718   -0.01293366

     Total force =     0.364806     Total SCF correction =     0.000837
 !ASE

     Writing output data file calc.save
 
     init_run     :     56.34s CPU     72.40s WALL (       1 calls)
     electrons    :   1978.34s CPU   2438.24s WALL (       1 calls)
     forces       :     40.69s CPU     41.81s WALL (       1 calls)

     Called by init_run:
     wfcinit      :     47.91s CPU     63.20s WALL (       1 calls)
     potinit      :      1.35s CPU      1.69s WALL (       1 calls)

     Called by electrons:
     c_bands      :   1730.02s CPU   2128.25s WALL (       9 calls)
     sum_band     :    212.18s CPU    268.46s WALL (       9 calls)
     v_of_rho     :      9.29s CPU     11.68s WALL (       9 calls)
     newd         :     30.86s CPU     33.67s WALL (       9 calls)
     mix_rho      :      0.27s CPU      0.40s WALL (       9 calls)
     vdW_energy   :      1.64s CPU      2.02s WALL (      10 calls)
     vdW_ffts     :      2.90s CPU      3.76s WALL (      20 calls)
     vdW_v        :      1.01s CPU      1.15s WALL (      10 calls)

     Called by c_bands:
     init_us_2    :      5.40s CPU      5.82s WALL (     800 calls)
     cegterg      :   1697.72s CPU   2094.05s WALL (     360 calls)

     Called by *egterg:
     h_psi        :    691.66s CPU   1015.13s WALL (    1959 calls)
     s_psi        :     83.51s CPU     87.17s WALL (    1959 calls)
     g_psi        :      4.52s CPU      4.63s WALL (    1559 calls)
     cdiaghg      :    597.93s CPU    612.93s WALL (    1879 calls)

     Called by h_psi:
     add_vuspsi   :     83.97s CPU     87.85s WALL (    1959 calls)

     General routines
     calbec       :    128.66s CPU    131.54s WALL (    2359 calls)
     fft          :      6.16s CPU      7.79s WALL (     794 calls)
     ffts         :      0.04s CPU      0.06s WALL (      36 calls)
     fftw         :    461.12s CPU    822.49s WALL (  664056 calls)
     interpolate  :      0.28s CPU      0.44s WALL (      36 calls)
     davcio       :      0.14s CPU      3.16s WALL (      40 calls)
 
     Parallel routines
     fft_scatter  :    253.01s CPU    439.98s WALL (  664886 calls)
 
     PWSCF        : 34m36.66s CPU    42m37.60s WALL

 
   This run was terminated on:   8:58: 2  13Feb2018            

=------------------------------------------------------------------------------=
   JOB DONE.
=------------------------------------------------------------------------------=
